 Gaussian 98, Revision A.7,
 Gaussian 98:  SGI64-G98RevA.7 11-Apr-1999

 --------------------
 #BLYP/3-21G opt freq
 --------------------

 ----------------------------------------
 1H tetrazole c CH-NH-N=N-N= casno=288948
 ----------------------------------------
 Symbolic Z-matrix:
 Charge =  0 Multiplicity = 1

 SCF Done:  E(RB-LYP) =  -256.708329750     A.U. after   15 cycles
 SCF Done:  E(RB-LYP) =  -256.738294744     A.U. after   15 cycles
 SCF Done:  E(RB-LYP) =  -256.741471220     A.U. after   15 cycles
 SCF Done:  E(RB-LYP) =  -256.741900523     A.U. after   13 cycles
 SCF Done:  E(RB-LYP) =  -256.742091512     A.U. after   10 cycles
 SCF Done:  E(RB-LYP) =  -256.742129763     A.U. after   10 cycles
 SCF Done:  E(RB-LYP) =  -256.742140868     A.U. after   10 cycles
 SCF Done:  E(RB-LYP) =  -256.742151035     A.U. after   10 cycles
 SCF Done:  E(RB-LYP) =  -256.742154896     A.U. after   10 cycles
 Optimization completed.
    -- Stationary point found.
 Normal termination of Gaussian 98.

 ----------------------------------------------
 #N Geom=AllCheck Guess=TCheck RBLYP/3-21G Freq
 ----------------------------------------------

 1H tetrazole c CH-NH-N=N-N= casno=288948
 ----------------------------------------
 Redundant internal coordinates taken from checkpointfile:
 /tmp/Gau-14808185.chk
 Charge =  0 Multiplicity = 1

                         Standard orientation:
 ---------------------------------------------------------------------
 Center     Atomic     Atomic              Coordinates (Angstroms)
 Number     Number      Type              X           Y           Z
 ---------------------------------------------------------------------
    1          7             0       -0.753004   -0.986223    0.000000
    2          7             0       -1.196297    0.287431    0.000000
    3          7             0        0.000000    1.100516    0.000000
    4          1             0       -0.069110    2.120756    0.000000
    5          7             0        0.724601   -1.023363    0.000000
    6          6             0        1.088388    0.268407    0.000000
    7          1             0        2.111684    0.620284    0.000000
 ---------------------------------------------------------------------

 SCF Done:  E(RB-LYP) =  -256.742154896     A.U. after    1 cycles

  The electronic state is 1-A'.
 Alpha  occ. eigenvalues --  -14.05422 -14.02778 -14.00994 -13.97988  -9.96120
 Alpha  occ. eigenvalues --   -1.01657  -0.84112  -0.81464  -0.59859  -0.59065
 Alpha  occ. eigenvalues --   -0.53196  -0.43355  -0.41433  -0.30622  -0.27680
 Alpha  occ. eigenvalues --   -0.26534  -0.24798  -0.23399
 Alpha virt. eigenvalues --   -0.06233  -0.02396   0.03829   0.05299   0.12145
 Alpha virt. eigenvalues --    0.14514   0.19901   0.30184   0.32072   0.61084
 Alpha virt. eigenvalues --    0.64486   0.74878   0.78354   0.85382   0.94918

  Exact polarizability:  36.797   1.382  36.758   0.001  -0.001  11.419
 Approx polarizability:  89.403  -1.556 102.034   0.000   0.000  17.944

                     1                      2                      3
                    A"                     A"                     A"
 Frequencies --   560.7473               637.6185               647.5425
 Red. masses --     2.0265                 1.7120                 7.9983
 Frc consts  --     0.3754                 0.4101                 1.9760
 IR Inten    --   104.6358                33.3430                 2.5815
 Raman Activ --     0.0000                 0.0000                 0.0000

                     4                      5                      6
                    A'                     A'                     A"
 Frequencies --   683.7072               755.9151               862.5242
 Red. masses --    10.7730                 6.8493                 1.3612
 Frc consts  --     2.9671                 2.3059                 0.5966
 IR Inten    --     9.9200                14.2890                19.7457
 Raman Activ --     0.0000                 0.0000                 0.0000

                     7                      8                      9
                    A'                     A'                     A'
 Frequencies --   921.7242               961.5628               996.9482
 Red. masses --     4.4096                 7.2709                10.8489
 Frc consts  --     2.2072                 3.9609                 6.3531
 IR Inten    --     6.4502                 7.0133                 0.2448
 Raman Activ --     0.0000                 0.0000                 0.0000

                    10                     11                     12
                    A'                     A'                     A'
 Frequencies --  1092.8071              1156.9860              1296.6556
 Red. masses --     2.0760                 2.2247                 2.4588
 Frc consts  --     1.4607                 1.7546                 2.4357
 IR Inten    --    12.3271                 8.7145                 4.1261
 Raman Activ --     0.0000                 0.0000                 0.0000

                    13                     14                     15
                    A'                     A'                     A'
 Frequencies --  1364.2756              3228.3728              3451.3118
 Red. masses --     2.0734                 1.0973                 1.0844
 Frc consts  --     2.2738                 6.7383                 7.6101
 IR Inten    --    33.4085                 0.8971                51.8221
 Raman Activ --     0.0000                 0.0000                 0.0000

 - Thermochemistry -
 -------------------
 Temperature   298.150 Kelvin.  Pressure   1.00000 Atm.
 Atom  1 has atomic number  7 and mass  14.00307

 Molecular mass:    70.02795 amu.
 Principal axes and moments of inertia in atomic units:
                           1         2         3
     EIGENVALUES --   185.90909 192.86738 378.77647
           X            0.99463   0.10348   0.00000
           Y           -0.10348   0.99463   0.00000
           Z            0.00000   0.00000   1.00000
 THIS MOLECULE IS AN ASYMMETRIC TOP.
 ROTATIONAL SYMMETRY NUMBER  1.
 ROTATIONAL TEMPERATURES (KELVIN)      0.46589     0.44908     0.22867
 ROTATIONAL CONSTANTS (GHZ)            9.70765     9.35742     4.76466
 Zero-point vibrational energy     111364.6 (Joules/Mol)
                                   26.61677 (Kcal/Mol)
 WARNING-- EXPLICIT CONSIDERATION OF   1 DEGREES OF FREEDOM AS
           VIBRATIONS MAY CAUSE SIGNIFICANT ERROR
 VIBRATIONAL TEMPERATURES:    806.79   917.39   931.66   983.70  1087.59
          (KELVIN)           1240.97  1326.15  1383.47  1434.38  1572.30
                             1664.64  1865.59  1962.88  4644.88  4965.64

 Zero-point correction=                           0.042417 (Hartree/Particle)
 Thermal correction to Energy=                    0.046177
 Thermal correction to Enthalpy=                  0.047121
 Thermal correction to Gibbs Free Energy=         0.016098
 Sum of electronic and zero-point Energies=           -256.699738
 Sum of electronic and thermal Energies=              -256.695978
 Sum of electronic and thermal Enthalpies=            -256.695034
 Sum of electronic and thermal Free Energies=         -256.726057

                     E (Thermal)             CV                S
                      KCAL/MOL        CAL/MOL-KELVIN    CAL/MOL-KELVIN
 TOTAL                   28.976             13.167             65.293
 ELECTRONIC               0.000              0.000              0.000
 TRANSLATIONAL            0.889              2.981             38.656
 ROTATIONAL               0.889              2.981             24.122
 VIBRATIONAL             27.199              7.205              2.515
 VIBRATION  1             0.916              1.116              0.522
                       Q            LOG10(Q)             LN(Q)
 TOTAL BOT       0.393918D-07         -7.404594        -17.049707
 TOTAL V=0       0.127503D+13         12.105520         27.873990
 VIB (BOT)       0.409938D-19        -19.387282        -44.640866
 VIB (BOT)  1    0.276970D+00         -0.557567         -1.283845
 VIB (V=0)       0.132688D+01          0.122832          0.282831
 VIB (V=0)  1    0.107159D+01          0.030028          0.069141
 ELECTRONIC      0.100000D+01          0.000000          0.000000
 TRANSLATIONAL   0.230339D+08          7.362368         16.952478
 ROTATIONAL      0.417177D+05          4.620321         10.638681
 ***** Axes restored to original set *****
 -------------------------------------------------------------------
 Center     Atomic                   Forces (Hartrees/Bohr)
 Number     Number              X              Y              Z
 -------------------------------------------------------------------
    1          7          -0.000046810    0.000040780    0.000000000
    2          7          -0.000044888   -0.000075832    0.000000000
    3          7          -0.000034858    0.000425083    0.000000000
    4          1           0.000042100   -0.000006044    0.000000000
    5          7          -0.000196195   -0.000173459    0.000000000
    6          6           0.000280731   -0.000293392    0.000000000
    7          1          -0.000000081    0.000082863    0.000000000
 -------------------------------------------------------------------
 Cartesian Forces:  Max     0.000425083 RMS     0.000144036

 GradGradGradGradGradGradGradGradGradGradGradGradGradGradGradGradGradGrad
 Berny optimization.
 Internal  Forces:  Max     0.000330983 RMS     0.000091358
 Search for a local minimum.
 Step number   1 out of a maximum of  36
 All quantities printed in internal units (Hartrees-Bohrs-Radians)
 Second derivative matrix not updated -- analytic derivatives used.
     Eigenvalues ---    0.00803   0.02588   0.06367   0.06877   0.08958
     Eigenvalues ---    0.09542   0.09826   0.13149   0.26042   0.28984
     Eigenvalues ---    0.36415   0.38556   0.42583   0.47250   0.54979
     Eigenvalues --- 1000.000001000.000001000.000001000.000001000.00000
     Eigenvalues --- 1000.000001000.000001000.000001000.000001000.00000
     Eigenvalues --- 1000.00000
 Angle between quadratic step and forces=  38.78 degrees.
 Linear search not attempted -- first point.
 Iteration  1 RMS(Cart)=  0.00031568 RMS(Int)=  0.00000012
 Iteration  2 RMS(Cart)=  0.00000011 RMS(Int)=  0.00000001
 Variable       Old X    -DE/DX   Delta X   Delta X   Delta X     New X
                                 (Linear)    (Quad)   (Total)
    R1        2.54847   0.00002   0.00000  -0.00025  -0.00025   2.54822
    R2        2.79315   0.00006   0.00000   0.00045   0.00045   2.79361
    R3        2.73340   0.00005   0.00000   0.00000   0.00000   2.73341
    R4        1.93239   0.00002   0.00000   0.00006   0.00006   1.93246
    R5        2.58899   0.00033   0.00000   0.00101   0.00101   2.59000
    R6        2.53604   0.00025   0.00000   0.00037   0.00037   2.53641
    R7        2.04488  -0.00003   0.00000  -0.00009  -0.00009   2.04480
    A1        1.93086   0.00005   0.00000   0.00012   0.00012   1.93099
    A2        1.83281   0.00009   0.00000   0.00029   0.00029   1.83310
    A3        2.10011   0.00008   0.00000   0.00063   0.00063   2.10074
    A4        1.89191  -0.00007   0.00000  -0.00020  -0.00020   1.89170
    A5        2.29117  -0.00001   0.00000  -0.00042  -0.00042   2.29075
    A6        1.82018  -0.00003   0.00000  -0.00011  -0.00011   1.82006
    A7        1.94903  -0.00004   0.00000  -0.00010  -0.00010   1.94893
    A8        2.15765  -0.00005   0.00000  -0.00076  -0.00076   2.15689
    A9        2.17651   0.00009   0.00000   0.00086   0.00086   2.17737
    D1        0.00000   0.00000   0.00000   0.00000   0.00000   0.00000
    D2        0.00000   0.00000   0.00000   0.00000   0.00000   0.00000
    D3        3.14159   0.00000   0.00000   0.00000   0.00000   3.14159
    D4        0.00000   0.00000   0.00000   0.00000   0.00000   0.00000
    D5        0.00000   0.00000   0.00000   0.00000   0.00000   0.00000
    D6        3.14159   0.00000   0.00000   0.00000   0.00000   3.14159
    D7        3.14159   0.00000   0.00000   0.00000   0.00000   3.14159
    D8        0.00000   0.00000   0.00000   0.00000   0.00000   0.00000
    D9        0.00000   0.00000   0.00000   0.00000   0.00000   0.00000
   D10        3.14159   0.00000   0.00000   0.00000   0.00000   3.14159
         Item               Value     Threshold  Converged?
 Maximum Force            0.000331     0.000450     YES
 RMS     Force            0.000091     0.000300     YES
 Maximum Displacement     0.000804     0.001800     YES
 RMS     Displacement     0.000316     0.001200     YES
 Predicted change in Energy=-3.402197D-07
 Optimization completed.
    -- Stationary point found.
                         ----------------------------
                         !   Optimized Parameters   !
                         ! (Angstroms and Degrees)  !
 ------------------------                            -------------------------
 ! Name  Definition              Value          Derivative Info.             !
 -----------------------------------------------------------------------------
 ! R1    R(1,2)                  1.3486         -DE/DX =    0.               !
 ! R2    R(1,5)                  1.4781         -DE/DX =    0.0001           !
 ! R3    R(2,3)                  1.4465         -DE/DX =    0.0001           !
 ! R4    R(3,4)                  1.0226         -DE/DX =    0.               !
 ! R5    R(3,6)                  1.37           -DE/DX =    0.0003           !
 ! R6    R(5,6)                  1.342          -DE/DX =    0.0003           !
 ! R7    R(6,7)                  1.0821         -DE/DX =    0.               !
 ! A1    A(2,1,5)              110.6302         -DE/DX =    0.0001           !
 ! A2    A(1,2,3)              105.0123         -DE/DX =    0.0001           !
 ! A3    A(2,3,4)              120.3274         -DE/DX =    0.0001           !
 ! A4    A(2,3,6)              108.3982         -DE/DX =   -0.0001           !
 ! A5    A(4,3,6)              131.2744         -DE/DX =    0.               !
 ! A6    A(1,5,6)              104.2884         -DE/DX =    0.               !
 ! A7    A(3,6,5)              111.6709         -DE/DX =    0.               !
 ! A8    A(3,6,7)              123.6245         -DE/DX =   -0.0001           !
 ! A9    A(5,6,7)              124.7046         -DE/DX =    0.0001           !
 ! D1    D(5,1,2,3)              0.             -DE/DX =    0.               !
 ! D2    D(2,1,5,6)              0.             -DE/DX =    0.               !
 ! D3    D(1,2,3,4)            180.             -DE/DX =    0.               !
 ! D4    D(1,2,3,6)              0.             -DE/DX =    0.               !
 ! D5    D(2,3,6,5)              0.             -DE/DX =    0.               !
 ! D6    D(2,3,6,7)            180.             -DE/DX =    0.               !
 ! D7    D(4,3,6,5)            180.             -DE/DX =    0.               !
 ! D8    D(4,3,6,7)              0.             -DE/DX =    0.               !
 ! D9    D(1,5,6,3)              0.             -DE/DX =    0.               !
 ! D10   D(1,5,6,7)            180.             -DE/DX =    0.               !
 -----------------------------------------------------------------------------
 GradGradGradGradGradGradGradGradGradGradGradGradGradGradGradGradGradGrad

 1\1\ NATIONAL INSTITUTE OF STANDARDS AND TECHNOLOGY-TAY\Freq\RBLYP\3-2
 1G\C1H2N4\RDJ3\07-Mar-2000\0\\#N GEOM=ALLCHECK GUESS=TCHECK RBLYP/3-21
 G FREQ\\1H tetrazole c CH-NH-N=N-N= casno=288948\\0,1\N,-1.2105727332,
 -0.2723329924,0.\N,-0.7323653996,0.9886275751,0.\N,0.7067961836,0.8435
 484165,0.\H,1.3090627746,1.6699506395,0.\N,-0.1018365917,-1.249779309,
 0.\C,1.006633963,-0.4932726305,0.\H,2.0169832333,-0.8807606877,0.\\Ver
 sion=SGI64-G98RevA.7\State=1-A'\HF=-256.7421549\RMSD=4.096e-10\RMSF=1.
 440e-04\Dipole=1.8724557,0.8394826,0.\DipoleDeriv=0.0942956,-0.0608175
 ,0.0001203,-0.1887721,-0.0496113,0.0000394,-0.0001956,0.0000942,-0.145
 4922,0.2975708,0.1719598,-0.0001887,0.1478681,-0.2089155,-0.0001555,0.
 0000994,-0.0001643,-0.0591417,-0.4028741,-0.1477653,0.000258,-0.194301
 4,-0.23254,0.0000423,0.0000494,0.0000268,-0.2430008,0.185378,-0.014395
 8,-0.0000674,0.0091792,0.2178214,-0.0001308,-0.0000091,-0.0000298,0.38
 33076,-0.3945406,0.0956608,-0.0003445,0.054835,-0.1674204,-0.0000835,0
 .0000774,0.0000563,-0.173125,0.1706454,-0.0768313,0.00024,0.1744255,0.
 3180103,0.0002803,-0.0000409,0.000059,0.055626,0.0495251,0.0321893,-0.
 0000177,-0.0032338,0.1226557,0.0000078,0.0000193,-0.0000422,0.1818262\
 Polar=38.1419903,0.2225915,35.4131821,0.0003407,-0.0019049,11.4192958\
 PG=CS [SG(C1H2N4)]\NImag=0\\0.37920575,0.07742777,0.23588583,0.0000156
 0,0.00000436,0.09331985,-0.08458563,-0.05370890,-0.00001439,0.24351397
 ,0.00843450,-0.15478467,-0.00000597,-0.06926698,0.38306524,0.00001411,
 -0.00000513,-0.07249758,-0.00002236,-0.00000380,0.08601862,-0.10015985
 ,-0.08430015,0.00000837,-0.08470394,0.01331973,0.00001216,0.47218222,-
 0.02821375,-0.05351759,0.00001356,0.03812029,-0.08889185,-0.00000321,0
 .19995612,0.77617382,0.00000321,-0.00000235,0.01871708,-0.00000382,0.0
 0000327,-0.05313485,-0.00000036,0.00000080,0.08053388,-0.00917299,-0.0
 0239952,-0.00000405,0.00109042,-0.02620467,0.00000229,-0.18013487,-0.1
 6569125,0.00000016,0.17747933,0.00905717,0.00012513,-0.00000496,0.0047
 1372,0.00946862,0.00000164,-0.16695793,-0.29935300,0.00000095,0.175755
 11,0.29605423,-0.00000152,-0.00000031,0.00620396,0.00000193,0.00000070
 ,-0.00884904,-0.00000193,-0.00000037,-0.00800215,0.00000080,0.00000113
 ,0.01243800,-0.07033012,0.01492049,-0.00001033,-0.01503497,0.06483987,
 -0.00000079,0.00220060,-0.09197458,0.00000347,-0.00182582,-0.00173662,
 0.00000203,0.32269103,-0.03544826,-0.04261444,-0.00000308,-0.01320533,
 -0.10082134,0.00000991,-0.00485234,-0.08140598,0.00000033,0.00828182,-
 0.00467406,0.00000098,0.12526315,0.37649372,-0.00001950,-0.00000130,-0
 .06842145,0.00002536,0.00000989,0.02601460,-0.00001545,-0.00000636,0.0
 2142136,0.00000084,0.00000213,0.00629788,0.00001310,-0.00000343,0.0885
 1046,-0.11382122,0.04732943,-0.00000830,-0.06025954,0.01407715,0.00000
 381,-0.11330970,0.05280625,-0.00000298,0.01287280,-0.02153562,-0.00000
 116,-0.22242583,-0.08956658,-0.00000307,0.80815883,-0.02578540,0.01637
 837,0.00000063,0.09498560,-0.04297786,-0.00000325,0.01087765,-0.243730
 55,-0.00000234,0.01062243,-0.00093938,-0.00000233,-0.09147713,-0.15732
 048,-0.00000069,-0.10548829,0.51309464,-0.00000888,0.00000652,0.014076
 97,0.00000983,-0.00000681,0.01793048,0.00000060,-0.00000282,-0.0590678
 6,-0.00000135,-0.00000274,-0.00727562,-0.00001275,-0.00000668,-0.07033
 297,0.00001405,0.00001162,0.13593236,-0.00113595,0.00073087,0.00001309
 ,-0.00002030,-0.00519959,-0.00000922,0.00392553,-0.00500309,0.00000033
 ,-0.00030888,0.00070418,-0.00000015,-0.01527489,0.00952753,-0.00000127
 ,-0.31121535,0.10626513,-0.00000150,0.32402984,-0.00547203,-0.00147262
 ,-0.00000454,-0.00163840,-0.00505814,0.00000383,0.03195690,-0.00927485
 ,-0.00000067,-0.00036391,-0.00068151,0.00000020,-0.01983519,0.01034258
 ,-0.00000023,0.10237765,-0.08450474,0.00000091,-0.10702502,0.09064928,
 -0.00000303,-0.00000181,0.00860117,0.00000347,0.00000273,0.00451776,-0
 .00000339,-0.00000160,-0.00046746,0.00000131,0.00000185,-0.00081303,0.
 00000528,0.00000196,-0.00348988,-0.00000236,-0.00000363,-0.03126336,-0
 .00000128,0.00000051,0.02291481\\0.00004681,-0.00004078,0.,0.00004489,
 0.00007583,0.,0.00003486,-0.00042508,0.,-0.00004210,0.00000604,0.,0.00
 019619,0.00017346,0.,-0.00028073,0.00029339,0.,0.00000008,-0.00008286,
 0.\\\@

 IT'S WHAT A FELLER THINKS HE KNOWS THAT HURTS HIM...
                    ------
           KIN HUBBARD
 Job cpu time:  0 days  0 hours  1 minutes 10.5 seconds.
 File lengths (MBytes):  RWF=   10 Int=    0 D2E=    0 Chk=    4 Scr=    1
 Normal termination of Gaussian 98.
