 Gaussian 03, Revision C.02,
 Gaussian 03:  IA32L-G03RevC.02 12-Jun-2004

 --------------------------
 #BLYP/6-311G(d,p) opt freq
 --------------------------

 -----------------------------------------------------------
 1H tetrazole c CH-NH-N=N-N= casno=288948 method=13 basis=21
 -----------------------------------------------------------
 Symbolic Z-matrix:
 Charge =  0 Multiplicity = 1

 SCF Done:  E(RB-LYP) =  -258.258773599     A.U. after   16 cycles
 SCF Done:  E(RB-LYP) =  -258.267751695     A.U. after   13 cycles
 SCF Done:  E(RB-LYP) =  -258.268066542     A.U. after   13 cycles
 SCF Done:  E(RB-LYP) =  -258.268085907     A.U. after   10 cycles
 SCF Done:  E(RB-LYP) =  -258.268101835     A.U. after    9 cycles
 SCF Done:  E(RB-LYP) =  -258.268102679     A.U. after    8 cycles
 Optimization completed.
    -- Stationary point found.
 Normal termination of Gaussian 03 at Fri Jan  7 14:04:32 2005.

 --------------------------------------------------------------------
 #N Geom=AllCheck Guess=Read SCRF=Check GenChk RBLYP/6-311G(d,p) Freq
 --------------------------------------------------------------------

 1H tetrazole c CH-NH-N=N-N= casno=288948 method=13 basis=21
 -----------------------------------------------------------
 Redundant internal coordinates taken from checkpoint file:
 /scratch/Gau-4700.chk
 Charge =  0 Multiplicity = 1

                         Standard orientation:
 ---------------------------------------------------------------------
 Center     Atomic     Atomic              Coordinates (Angstroms)
 Number     Number      Type              X           Y           Z
 ---------------------------------------------------------------------
    1          7             0       -0.731352   -0.938548    0.000000
    2          7             0       -1.139538    0.300134    0.000000
    3          7             0        0.000000    1.067956    0.000000
    4          1             0       -0.063225    2.082861    0.000000
    5          7             0        0.654793   -1.014871    0.000000
    6          6             0        1.077830    0.240199    0.000000
    7          1             0        2.108919    0.573252    0.000000
 ---------------------------------------------------------------------

 SCF Done:  E(RB-LYP) =  -258.268102679     A.U. after    1 cycles

 The electronic state is 1-A'.
 Alpha  occ. eigenvalues --  -14.11020 -14.07527 -14.05814 -14.03108  -9.99652
 Alpha  occ. eigenvalues --   -1.03557  -0.85525  -0.80981  -0.61183  -0.59827
 Alpha  occ. eigenvalues --   -0.53626  -0.44696  -0.43734  -0.32607  -0.29184
 Alpha  occ. eigenvalues --   -0.27621  -0.25734  -0.24551
 Alpha virt. eigenvalues --   -0.06124  -0.02808  -0.00651   0.03635   0.10994
 Alpha virt. eigenvalues --    0.14342   0.18706   0.22043   0.27347   0.32677
 Alpha virt. eigenvalues --    0.35170   0.39291   0.44374   0.47189   0.51500

 Mulliken atomic charges:
              1
     1  N   -0.085888
     2  N   -0.029280
     3  N   -0.253116
     4  H    0.243576
     5  N   -0.210877
     6  C    0.202569
     7  H    0.133015
 Sum of Mulliken charges=   0.00000

 Dipole moment (field-independent basis, Debye):
    X=     2.3899    Y=     4.6334    Z=     0.0000  Tot=     5.2134
 Quadrupole moment (field-independent basis, Debye-Ang):
   XX=   -29.1068   YY=   -26.6088   ZZ=   -28.3861
   XY=     1.7926   XZ=     0.0000   YZ=     0.0000

  Exact polarizability:  40.870   1.137  40.622   0.000   0.000  17.915
 Approx polarizability:  87.519   0.492  94.615   0.000   0.000  31.036

                     1                      2                      3
                    A"                     A"                     A"
 Frequencies --   558.3405               666.1951               705.6717
 Red. masses --     1.8302                 1.9243                 7.9056
 Frc consts  --     0.3362                 0.5032                 2.3195
 IR Inten    --    77.2618                 9.3870                 8.4754

                     4                      5                      6
                    A"                     A'                     A'
 Frequencies --   818.1050               874.7825               924.3231
 Red. masses --     1.3558                 7.6344                 5.1126
 Frc consts  --     0.5346                 3.4421                 2.5736
 IR Inten    --    20.6540                 8.3931                13.8692

                     7                      8                      9
                    A'                     A'                     A'
 Frequencies --   969.0958              1007.6314              1098.4147
 Red. masses --     5.9344                 3.4241                 2.1093
 Frc consts  --     3.2837                 2.0483                 1.4994
 IR Inten    --     2.8447                19.0172                19.1525

                    10                     11                     12
                    A'                     A'                     A'
 Frequencies --  1189.2786              1204.6324              1379.9830
 Red. masses --     3.8050                 3.3699                 2.9860
 Frc consts  --     3.1708                 2.8812                 3.3503
 IR Inten    --    14.7102                 0.7146                 7.7259

                    13                     14                     15
                    A'                     A'                     A'
 Frequencies --  1432.6451              3195.9037              3531.0523
 Red. masses --     2.8074                 1.0987                 1.0829
 Frc consts  --     3.3949                 6.6118                 7.9551
 IR Inten    --    14.7944                 0.5070                59.2168

 - Thermochemistry -
 -------------------
 Temperature   298.150 Kelvin.  Pressure   1.00000 Atm.
 Atom  1 has atomic number  7 and mass  14.00307

 Molecular mass:    70.02795 amu.
 Principal axes and moments of inertia in atomic units:
                           1         2         3
     EIGENVALUES --   175.47464 179.24536 354.72000
           X            0.92703   0.37499   0.00000
           Y           -0.37499   0.92703   0.00000
           Z            0.00000   0.00000   1.00000
 This molecule is an asymmetric top.
 Rotational symmetry number  1.
 Rotational temperatures (Kelvin)      0.49360     0.48321     0.24418
 Rotational constants (GHZ):          10.28491    10.06855     5.08779
 Zero-point vibrational energy     116971.2 (Joules/Mol)
                                   27.95678 (Kcal/Mol)
 Warning -- explicit consideration of   1 degrees of freedom as
           vibrations may cause significant error
 Vibrational temperatures:    803.33   958.50  1015.30  1177.07  1258.62
          (Kelvin)           1329.89  1394.31  1449.76  1580.37  1711.10
                             1733.20  1985.49  2061.25  4598.19  5080.39

 Zero-point correction=                           0.044552 (Hartree/Particle)
 Thermal correction to Energy=                    0.048139
 Thermal correction to Enthalpy=                  0.049083
 Thermal correction to Gibbs Free Energy=         0.018385
 Sum of electronic and zero-point Energies=           -258.223551
 Sum of electronic and thermal Energies=              -258.219964
 Sum of electronic and thermal Enthalpies=            -258.219019
 Sum of electronic and thermal Free Energies=         -258.249718

                     E (Thermal)             CV                S
                      KCal/Mol        Cal/Mol-Kelvin    Cal/Mol-Kelvin
 Total                   30.208             12.106             64.611
 Electronic               0.000              0.000              0.000
 Translational            0.889              2.981             38.656
 Rotational               0.889              2.981             23.927
 Vibrational             28.430              6.144              2.028
 Vibration  1             0.914              1.121              0.527

 Optimization completed.
    -- Stationary point found.
 Normal termination of Gaussian 03 at Fri Jan  7 14:08:39 2005.
