 Gaussian 98, Revision A.6,
 Gaussian 98:  SGI-G98RevA.6 19-Oct-1998

 -----------------------
 #BLYP/6-31+G** opt freq
 -----------------------

 ----------------------------------------
 1H tetrazole c CH-NH-N=N-N= casno=288948
 ----------------------------------------
 Symbolic Z-matrix:
 Charge =  0 Multiplicity = 1

 SCF Done:  E(RB-LYP) =  -258.207030393     A.U. after   13 cycles
 SCF Done:  E(RB-LYP) =  -258.217576995     A.U. after   12 cycles
 SCF Done:  E(RB-LYP) =  -258.217896790     A.U. after   11 cycles
 SCF Done:  E(RB-LYP) =  -258.217939845     A.U. after   10 cycles
 SCF Done:  E(RB-LYP) =  -258.217956600     A.U. after    9 cycles
 SCF Done:  E(RB-LYP) =  -258.217957453     A.U. after    9 cycles
 Optimization completed.
    -- Stationary point found.
 Normal termination of Gaussian 98.

 ----------------------------------------------------
 #N Geom=AllCheck Guess=TCheck RBLYP/6-31+G(d,p) Freq
 ----------------------------------------------------

 1H tetrazole c CH-NH-N=N-N= casno=288948
 ----------------------------------------
 Redundant internal coordinates taken from checkpointfile:
 /wrk/Gau-6956776.chk
 Charge =  0 Multiplicity = 1

                         Standard orientation:
 ---------------------------------------------------------------------
 Center     Atomic     Atomic              Coordinates (Angstroms)
 Number     Number      Type              X           Y           Z
 ---------------------------------------------------------------------
    1          7             0       -0.731529   -0.942249    0.000000
    2          7             0       -1.141399    0.301861    0.000000
    3          7             0        0.000000    1.069689    0.000000
    4          1             0       -0.063609    2.086722    0.000000
    5          7             0        0.653757   -1.017432    0.000000
    6          6             0        1.080528    0.242613    0.000000
    7          1             0        2.114634    0.574518    0.000000
 ---------------------------------------------------------------------

 SCF Done:  E(RB-LYP) =  -258.217957453     A.U. after    1 cycles

  The electronic state is 1-A'.
 Alpha  occ. eigenvalues --  -14.15287 -14.11941 -14.10287 -14.07561 -10.03084
 Alpha  occ. eigenvalues --   -1.04282  -0.86429  -0.81730  -0.62016  -0.60580
 Alpha  occ. eigenvalues --   -0.54227  -0.45386  -0.44371  -0.33569  -0.30012
 Alpha  occ. eigenvalues --   -0.28294  -0.26869  -0.25630
 Alpha virt. eigenvalues --   -0.07136  -0.03928  -0.03355   0.00366   0.02830
 Alpha virt. eigenvalues --    0.03949   0.05444   0.06550   0.08702   0.11160
 Alpha virt. eigenvalues --    0.11432   0.12477   0.14306   0.15379   0.15708

  Exact polarizability:  47.318   0.348  46.969  -0.027   0.015  25.301
 Approx polarizability:  94.075  -0.332 100.724   0.000   0.000  41.491

                     1                      2                      3
                    A"                     A"                     A"
 Frequencies --   530.2767               657.2324               696.8030
 Red. masses --     1.7815                 1.9897                 8.7242
 Frc consts  --     0.2952                 0.5064                 2.4957
 IR Inten    --    79.5085                 8.9114                 7.0841
 Raman Activ --     0.0000                 0.0000                 0.0000

                     4                      5                      6
                    A"                     A'                     A'
 Frequencies --   804.5130               889.6885               941.8280
 Red. masses --     1.3306                 6.7401                 4.8113
 Frc consts  --     0.5074                 3.1434                 2.5145
 IR Inten    --    25.7164                 8.2707                12.5549
 Raman Activ --     0.0000                 0.0000                 0.0000

                     7                      8                      9
                    A'                     A'                     A'
 Frequencies --   964.4176              1004.3602              1099.7891
 Red. masses --     7.7059                 3.6702                 1.9285
 Frc consts  --     4.2229                 2.1813                 1.3743
 IR Inten    --     3.5371                21.9469                17.3317
 Raman Activ --     0.0000                 0.0000                 0.0000

                    10                     11                     12
                    A'                     A'                     A'
 Frequencies --  1191.2771              1207.8806              1385.8666
 Red. masses --     4.0570                 3.1919                 2.9530
 Frc consts  --     3.3922                 2.7438                 3.3416
 IR Inten    --    15.9377                 0.5242                 9.1364
 Raman Activ --     0.0000                 0.0000                 0.0000

                    13                     14                     15
                    A'                     A'                     A'
 Frequencies --  1432.7910              3217.0576              3539.6059
 Red. masses --     2.9673                 1.0989                 1.0834
 Frc consts  --     3.5890                 6.7008                 7.9972
 IR Inten    --    15.5809                 1.2072                66.4244
 Raman Activ --     0.0000                 0.0000                 0.0000

 - Thermochemistry -
 -------------------
 Temperature   298.150 Kelvin.  Pressure   1.00000 Atm.
 Atom  1 has atomic number  7 and mass  14.00307

 Molecular mass:    70.02795 amu.
 Principal axes and moments of inertia in atomic units:
                           1         2         3
     EIGENVALUES --   176.46432 179.70598 356.17030
           X            0.92002   0.39187   0.00000
           Y           -0.39187   0.92002   0.00000
           Z            0.00000   0.00000   1.00000
 THIS MOLECULE IS AN ASYMMETRIC TOP.
 ROTATIONAL SYMMETRY NUMBER  1.
 ROTATIONAL TEMPERATURES (KELVIN)      0.49083     0.48197     0.24318
 ROTATIONAL CONSTANTS (GHZ)           10.22723    10.04274     5.06707
 Zero-point vibrational energy     117015.1 (Joules/Mol)
                                   27.96727 (Kcal/Mol)
 WARNING-- EXPLICIT CONSIDERATION OF   1 DEGREES OF FREEDOM AS
           VIBRATIONS MAY CAUSE SIGNIFICANT ERROR
 VIBRATIONAL TEMPERATURES:    762.95   945.61  1002.54  1157.51  1280.06
          (KELVIN)           1355.07  1387.57  1445.04  1582.34  1713.97
                             1737.86  1993.94  2061.45  4628.60  5092.67

 Zero-point correction=                           0.044569 (Hartree/Particle)
 Thermal correction to Energy=                    0.048180
 Thermal correction to Enthalpy=                  0.049124
 Thermal correction to Gibbs Free Energy=         0.018383
 Sum of electronic and zero-point Energies=           -258.173389
 Sum of electronic and thermal Energies=              -258.169778
 Sum of electronic and thermal Enthalpies=            -258.168834
 Sum of electronic and thermal Free Energies=         -258.199575

                     E (Thermal)             CV                S
                      KCAL/MOL        CAL/MOL-KELVIN    CAL/MOL-KELVIN
 TOTAL                   30.233             12.183             64.700
 ELECTRONIC               0.000              0.000              0.000
 TRANSLATIONAL            0.889              2.981             38.656
 ROTATIONAL               0.889              2.981             23.939
 VIBRATIONAL             28.456              6.221              2.105
 VIBRATION  1             0.885              1.183              0.587
                       Q            LOG10(Q)             LN(Q)
 TOTAL BOT       0.350392D-08         -8.455446        -19.469384
 TOTAL V=0       0.110812D+13         12.044585         27.733682
 VIB (BOT)       0.399851D-20        -20.398102        -46.968365
 VIB (BOT)  1    0.301520D+00         -0.520684         -1.198920
 VIB (V=0)       0.126453D+01          0.101930          0.234702
 VIB (V=0)  1    0.108388D+01          0.034981          0.080546
 ELECTRONIC      0.100000D+01          0.000000          0.000000
 TRANSLATIONAL   0.230339D+08          7.362368         16.952478
 ROTATIONAL      0.380442D+05          4.580288         10.546503
 ***** Axes restored to original set *****
 -------------------------------------------------------------------
 Center     Atomic                   Forces (Hartrees/Bohr)
 Number     Number              X              Y              Z
 -------------------------------------------------------------------
    1          7           0.000149157   -0.000106043    0.000000000
    2          7          -0.000163577   -0.000007762    0.000000000
    3          7           0.000199141   -0.000115009    0.000000000
    4          1           0.000006086    0.000022672    0.000000000
    5          7          -0.000252254    0.000026292    0.000000000
    6          6           0.000064218    0.000217112    0.000000000
    7          1          -0.000002772   -0.000037260    0.000000000
 -------------------------------------------------------------------
 Cartesian Forces:  Max     0.000252254 RMS     0.000104819

 GradGradGradGradGradGradGradGradGradGradGradGradGradGradGradGradGradGrad
 Berny optimization.
 Internal  Forces:  Max     0.000175273 RMS     0.000059615
 Search for a local minimum.
 Step number   1 out of a maximum of  36
 All quantities printed in internal units (Hartrees-Bohrs-Radians)
 Second derivative matrix not updated -- analytic derivatives used.
     Eigenvalues ---    0.00692   0.02296   0.06548   0.07212   0.09483
     Eigenvalues ---    0.09916   0.16241   0.20109   0.30896   0.35780
     Eigenvalues ---    0.38280   0.42057   0.44727   0.52000   0.57361
     Eigenvalues --- 1000.000001000.000001000.000001000.000001000.00000
     Eigenvalues --- 1000.000001000.000001000.000001000.000001000.00000
     Eigenvalues --- 1000.00000
 Angle between quadratic step and forces=  22.73 degrees.
 Linear search not attempted -- first point.
 Iteration  1 RMS(Cart)=  0.00023011 RMS(Int)=  0.00000006
 Iteration  2 RMS(Cart)=  0.00000005 RMS(Int)=  0.00000000
 Variable       Old X    -DE/DX   Delta X   Delta X   Delta X     New X
                                 (Linear)    (Quad)   (Total)
    R1        2.47533  -0.00001   0.00000   0.00000   0.00000   2.47533
    R2        2.62166  -0.00018   0.00000  -0.00090  -0.00090   2.62076
    R3        2.59956   0.00015   0.00000   0.00076   0.00076   2.60032
    R4        1.92567   0.00002   0.00000   0.00003   0.00003   1.92570
    R5        2.57141  -0.00011   0.00000  -0.00048  -0.00048   2.57093
    R6        2.51401   0.00014   0.00000   0.00051   0.00051   2.51451
    R7        2.05236   0.00001   0.00000   0.00002   0.00002   2.05239
    A1        1.94327   0.00003   0.00000   0.00030   0.00030   1.94356
    A2        1.84472   0.00000   0.00000  -0.00024  -0.00024   1.84448
    A3        2.10051   0.00001   0.00000  -0.00014  -0.00014   2.10037
    A4        1.89611  -0.00005   0.00000  -0.00012  -0.00012   1.89599
    A5        2.28657   0.00004   0.00000   0.00026   0.00026   2.28683
    A6        1.84315   0.00001   0.00000   0.00005   0.00005   1.84319
    A7        1.89754   0.00001   0.00000   0.00002   0.00002   1.89755
    A8        2.17771   0.00003   0.00000   0.00047   0.00047   2.17818
    A9        2.20794  -0.00004   0.00000  -0.00049  -0.00049   2.20745
    D1        0.00000   0.00000   0.00000   0.00000   0.00000   0.00000
    D2        0.00000   0.00000   0.00000   0.00000   0.00000   0.00000
    D3        3.14159   0.00000   0.00000   0.00000   0.00000   3.14159
    D4        0.00000   0.00000   0.00000   0.00000   0.00000   0.00000
    D5        0.00000   0.00000   0.00000   0.00000   0.00000   0.00000
    D6        3.14159   0.00000   0.00000   0.00000   0.00000   3.14159
    D7        3.14159   0.00000   0.00000   0.00000   0.00000   3.14159
    D8        0.00000   0.00000   0.00000   0.00000   0.00000   0.00000
    D9        0.00000   0.00000   0.00000   0.00000   0.00000   0.00000
   D10        3.14159   0.00000   0.00000   0.00000   0.00000   3.14159
         Item               Value     Threshold  Converged?
 Maximum Force            0.000175     0.000450     YES
 RMS     Force            0.000060     0.000300     YES
 Maximum Displacement     0.000511     0.001800     YES
 RMS     Displacement     0.000230     0.001200     YES
 Predicted change in Energy=-2.256110D-07
 Optimization completed.
    -- Stationary point found.
                         ----------------------------
                         !   Optimized Parameters   !
                         ! (Angstroms and Degrees)  !
 ------------------------                            -------------------------
 ! Name  Definition              Value          Derivative Info.             !
 -----------------------------------------------------------------------------
 ! R1    R(1,2)                  1.3099         -DE/DX =    0.               !
 ! R2    R(1,5)                  1.3873         -DE/DX =   -0.0002           !
 ! R3    R(2,3)                  1.3756         -DE/DX =    0.0001           !
 ! R4    R(3,4)                  1.019          -DE/DX =    0.               !
 ! R5    R(3,6)                  1.3607         -DE/DX =   -0.0001           !
 ! R6    R(5,6)                  1.3304         -DE/DX =    0.0001           !
 ! R7    R(6,7)                  1.0861         -DE/DX =    0.               !
 ! A1    A(2,1,5)              111.3409         -DE/DX =    0.               !
 ! A2    A(1,2,3)              105.6946         -DE/DX =    0.               !
 ! A3    A(2,3,4)              120.3502         -DE/DX =    0.               !
 ! A4    A(2,3,6)              108.6392         -DE/DX =    0.               !
 ! A5    A(4,3,6)              131.0106         -DE/DX =    0.               !
 ! A6    A(1,5,6)              105.6045         -DE/DX =    0.               !
 ! A7    A(3,6,5)              108.7208         -DE/DX =    0.               !
 ! A8    A(3,6,7)              124.7738         -DE/DX =    0.               !
 ! A9    A(5,6,7)              126.5054         -DE/DX =    0.               !
 ! D1    D(5,1,2,3)              0.             -DE/DX =    0.               !
 ! D2    D(2,1,5,6)              0.             -DE/DX =    0.               !
 ! D3    D(1,2,3,4)            180.             -DE/DX =    0.               !
 ! D4    D(1,2,3,6)              0.             -DE/DX =    0.               !
 ! D5    D(2,3,6,5)              0.             -DE/DX =    0.               !
 ! D6    D(2,3,6,7)            180.             -DE/DX =    0.               !
 ! D7    D(4,3,6,5)            180.             -DE/DX =    0.               !
 ! D8    D(4,3,6,7)              0.             -DE/DX =    0.               !
 ! D9    D(1,5,6,3)              0.             -DE/DX =    0.               !
 ! D10   D(1,5,6,7)            180.             -DE/DX =    0.               !
 -----------------------------------------------------------------------------
 GradGradGradGradGradGradGradGradGradGradGradGradGradGradGradGradGradGrad

 1\1\ NATIONAL INSTITUTE OF STANDARDS AND TECHNOLOGY-AMUR\Freq\RBLYP\6-
 31+G(d,p)\C1H2N4\RDJ3\23-May-2000\0\\#N GEOM=ALLCHECK GUESS=TCHECK RBL
 YP/6-31+G(D,P) FREQ\\1H tetrazole c CH-NH-N=N-N= casno=288948\\0,1\N,-
 1.1619026994,-0.2700938309,0.\N,-0.6955849309,0.9539776522,0.\N,0.6744
 678406,0.8302570931,0.\H,1.2663641184,1.659752184,0.\N,-0.134093324,-1
 .2019087773,0.\C,0.991644881,-0.4929941295,0.\H,2.0035583915,-0.887412
 3661,0.\\Version=SGI-G98RevA.6\State=1-A'\HF=-258.2179575\RMSD=1.885e-
 09\RMSF=1.048e-04\Dipole=1.9730372,0.831804,0.\DipoleDeriv=-0.0412843,
 -0.1402378,0.0001485,-0.2369772,0.1148816,-0.0001812,0.0002909,0.00013
 5,-0.1622313,0.3081142,0.2258414,0.0003349,0.2467385,-0.3152792,-0.000
 1934,-0.0003919,-0.0003574,-0.0994897,-0.3563838,-0.2914921,0.0002619,
 -0.2185166,-0.2302437,0.0003549,-0.000059,0.0001417,-0.1276291,0.18906
 71,0.023365,-0.000274,0.0149305,0.2273198,-0.0003943,0.0000168,-0.0000
 046,0.3364414,-0.3295907,0.1363401,0.0001896,0.0235692,-0.333539,0.000
 2311,0.0002714,-0.0000098,-0.1905863,0.1844959,0.0395653,-0.0006288,0.
 1632147,0.4267507,0.0001365,-0.0002178,0.0001383,0.0658282,0.045583,0.
 0066173,-0.0000319,0.0070391,0.1101131,0.0000465,0.0000906,-0.0000429,
 0.1776656\Polar=47.5196233,-0.0993157,46.7670395,-0.0112654,0.0288894,
 25.3012899\PG=CS [SG(C1H2N4)]\NImag=0\\0.47771663,0.08995344,0.3879393
 3,-0.00000693,0.00000581,0.11056122,-0.12078269,-0.08816065,0.00000197
 ,0.34983210,-0.03289648,-0.26048856,-0.00000217,-0.04392491,0.51982036
 ,0.00000507,-0.00000064,-0.08556825,0.00000137,-0.00000784,0.10054661,
 -0.10356907,-0.09814240,0.00000480,-0.15898751,0.02264143,-0.00000842,
 0.56262426,-0.03210384,-0.05446671,0.00000630,0.04994077,-0.10861009,-
 0.00000075,0.19222941,0.84221812,0.00000205,0.00000068,0.02270388,-0.0
 0000625,-0.00000420,-0.05848957,0.00000632,-0.00000400,0.07670766,-0.0
 1042763,-0.00238744,-0.00000462,-0.00370763,-0.02924998,0.00000491,-0.
 18292587,-0.16932361,0.00000040,0.18480337,0.00790174,0.00051955,-0.00
 000563,0.00246708,0.01056171,0.00000522,-0.17463077,-0.31662278,0.0000
 0086,0.18487768,0.31314268,-0.00000080,0.00000010,0.00715043,0.0000018
 4,0.00000073,-0.01128311,-0.00000137,0.00000061,-0.00465872,-0.0000004
 4,-0.00000062,0.01192843,-0.13048950,0.03988716,0.00000512,-0.00481075
 ,0.07844663,-0.00001312,0.00070237,-0.10076881,-0.00000143,-0.00107079
 ,-0.00189498,-0.00000015,0.41595511,0.00175253,-0.09687174,-0.00000804
 ,-0.01427130,-0.11236421,0.00000591,-0.00070458,-0.07697007,0.00000560
 ,0.00877506,-0.00565154,-0.00000158,0.10979961,0.46054905,-0.00000110,
 -0.00000699,-0.08046507,0.00001209,0.00002051,0.03174022,-0.00000581,0
 .00000118,0.01864454,-0.00000573,-0.00000667,0.00691950,0.00001273,-0.
 00000950,0.09811722,-0.10966120,0.05867152,-0.00000518,-0.06095301,0.0
 0915390,0.00001809,-0.12252895,0.06265857,-0.00000587,0.01366210,-0.01
 920861,0.00000139,-0.26558987,-0.11521496,-0.00001309,0.85209845,-0.02
 862626,0.02502989,0.00000697,0.09446418,-0.04329351,-0.00000551,0.0286
 8688,-0.28014263,0.00000284,0.00743837,-0.00151404,0.00000070,-0.10943
 898,-0.18233106,0.00000116,-0.09613747,0.57325957,0.00000272,0.0000020
 9,0.01733749,-0.00001279,-0.00000868,0.01744082,0.00000379,-0.00000444
 ,-0.05164185,0.00000674,0.00000850,-0.00952972,-0.00000513,0.00000875,
 -0.06989158,0.00000726,-0.00000746,0.12179059,-0.00278654,0.00017836,0
 .00000484,-0.00059051,-0.00417061,-0.00000788,0.00468478,-0.00263247,0
 .00000479,-0.00033352,0.00048786,-0.00000047,-0.01469658,0.00986364,0.
 00000091,-0.30702753,0.10361330,-0.00000259,0.32074993,-0.00598114,-0.
 00166176,-0.00000325,-0.00051519,-0.00562568,0.00000360,0.02992002,-0.
 00540588,-0.00000178,-0.00013007,-0.00043557,0.00000007,-0.01603059,0.
 01363959,0.00000032,0.10007707,-0.09100827,0.00000122,-0.10734012,0.09
 049759,-0.00000103,-0.00000105,0.00828030,0.00000178,0.00000163,0.0056
 1327,0.00000069,0.00000111,-0.00326597,-0.00000125,-0.00000166,-0.0005
 2680,0.00000198,-0.00000114,-0.00506484,-0.00000256,0.00000129,-0.0255
 0574,0.00000039,-0.00000017,0.02046980\\-0.00014916,0.00010604,0.,0.00
 016358,0.00000776,0.,-0.00019914,0.00011501,0.,-0.00000609,-0.00002267
 ,0.,0.00025225,-0.00002629,0.,-0.00006422,-0.00021711,0.,0.00000277,0.
 00003726,0.\\\@

 THE PROGRESS OF RIVERS TO THE SEA IS NOT AS RAPID
 AS THAT OF MAN TO ERROR.
                                              -- VOLTAIRE
 Job cpu time:  0 days  0 hours 23 minutes 52.0 seconds.
 File lengths (MBytes):  RWF=   15 Int=    0 D2E=    0 Chk=    3 Scr=    1
 Normal termination of Gaussian 98.
