 Gaussian 98, Revision A.7,
 Gaussian 98:  SGI64-G98RevA.7 11-Apr-1999

 ---------------------
 #CISD/6-31G* OPT FREQ
 ---------------------

 ----------------------------------------
 1H tetrazole c CH-NH-N=N-N= casno=288948
 ----------------------------------------
 Symbolic Z-matrix:
 Charge =  0 Multiplicity = 1

 SCF Done:  E(RHF) =  -256.754076242     A.U. after   15 cycles
 SCF Done:  E(RHF) =  -256.752686105     A.U. after   12 cycles
 SCF Done:  E(RHF) =  -256.752660618     A.U. after   11 cycles
 SCF Done:  E(RHF) =  -256.752639422     A.U. after   10 cycles
 SCF Done:  E(RHF) =  -256.752646797     A.U. after    9 cycles
 Optimization completed.
    -- Stationary point found.
 Normal termination of Gaussian 98.

 -----------------------------------------------------
 #N Geom=AllCheck Guess=TCheck RCISD(FC)/6-31G(d) Freq
 -----------------------------------------------------

 1H tetrazole c CH-NH-N=N-N= casno=288948
 ----------------------------------------
 Redundant internal coordinates taken from checkpointfile:
 /wrk/Gau-327706.chk
 Charge =  0 Multiplicity = 1

                         Standard orientation:
 ---------------------------------------------------------------------
 Center     Atomic     Atomic              Coordinates (Angstroms)
 Number     Number      Type              X           Y           Z
 ---------------------------------------------------------------------
    1          7             0       -0.719342   -0.915974    0.000000
    2          7             0       -1.108206    0.299064    0.000000
    3          7             0        0.000000    1.045984    0.000000
    4          1             0       -0.062765    2.047284    0.000000
    5          7             0        0.630765   -0.998964    0.000000
    6          6             0        1.059537    0.231390    0.000000
    7          1             0        2.083025    0.553604    0.000000
 ---------------------------------------------------------------------

 SCF Done:  E(RHF) =  -256.752646797     A.U. after    1 cycles
 SCF Done:  E(RHF) =  -256.752654046     A.U. after    9 cycles
 SCF Done:  E(RHF) =  -256.752637709     A.U. after    9 cycles
 SCF Done:  E(RHF) =  -256.752701095     A.U. after    9 cycles
 SCF Done:  E(RHF) =  -256.752589923     A.U. after    9 cycles
 SCF Done:  E(RHF) =  -256.752626913     A.U. after    9 cycles
 SCF Done:  E(RHF) =  -256.752662973     A.U. after    9 cycles
 SCF Done:  E(RHF) =  -256.752627996     A.U. after   10 cycles
 SCF Done:  E(RHF) =  -256.752662874     A.U. after   10 cycles
 SCF Done:  E(RHF) =  -256.752646458     A.U. after    7 cycles
 SCF Done:  E(RHF) =  -256.752638406     A.U. after    7 cycles
 SCF Done:  E(RHF) =  -256.752653815     A.U. after    7 cycles
 SCF Done:  E(RHF) =  -256.752644165     A.U. after    8 cycles
 SCF Done:  E(RHF) =  -256.752649092     A.U. after    8 cycles
 SCF Done:  E(RHF) =  -256.752646739     A.U. after    6 cycles

  The electronic state is 1-A'.
 Alpha  occ. eigenvalues --  -15.68763 -15.66519 -15.64662 -15.60443 -11.33802
 Alpha  occ. eigenvalues --   -1.50677  -1.26126  -1.20137  -0.91032  -0.89275
 Alpha  occ. eigenvalues --   -0.80444  -0.68132  -0.67952  -0.56957  -0.47632
 Alpha  occ. eigenvalues --   -0.46721  -0.45560  -0.41979
 Alpha virt. eigenvalues --    0.14502   0.19491   0.19848   0.25429   0.37199
 Alpha virt. eigenvalues --    0.38984   0.48275   0.50546   0.65986   0.73754
 Alpha virt. eigenvalues --    0.74056   0.82463   0.83145   0.90043   0.91757

                     1                      2                      3
                    A"                     A"                     A"
 Frequencies --   612.6428               725.0510               776.9061
 Red. masses --     1.7926                 1.9676                 8.1275
 Frc consts  --     0.3964                 0.6094                 2.8903
 IR Inten    --   110.5375                11.1995                10.2649
 Raman Activ --     0.0000                 0.0000                 0.0000

                     4                      5                      6
                    A"                     A'                     A'
 Frequencies --   929.5604              1040.4406              1069.6637
 Red. masses --     1.3533                 4.8869                 6.4298
 Frc consts  --     0.6890                 3.1168                 4.3345
 IR Inten    --    15.4925                 2.2184                 1.8321
 Raman Activ --     0.0000                 0.0000                 0.0000

                     7                      8                      9
                    A'                     A'                     A'
 Frequencies --  1150.5610              1161.6977              1220.9587
 Red. masses --     4.6376                 2.9359                 1.8714
 Frc consts  --     3.6171                 2.3344                 1.6437
 IR Inten    --    18.2875                36.4058                12.6530
 Raman Activ --     0.0000                 0.0000                 0.0000

                    10                     11                     12
                    A'                     A'                     A'
 Frequencies --  1367.6212              1436.6232              1571.8122
 Red. masses --     2.7017                 8.6800                 3.2059
 Frc consts  --     2.9773                10.5549                 4.6666
 IR Inten    --     0.0675                24.8446                13.6510
 Raman Activ --     0.0000                 0.0000                 0.0000

                    13                     14                     15
                    A'                     A'                     A'
 Frequencies --  1628.8949              3429.4256              3808.3696
 Red. masses --     3.7323                 1.1029                 1.0848
 Frc consts  --     5.8347                 7.6426                 9.2701
 IR Inten    --    22.9768                 1.1573               128.0481
 Raman Activ --     0.0000                 0.0000                 0.0000

 - Thermochemistry -
 -------------------
 Temperature   298.150 Kelvin.  Pressure   1.00000 Atm.
 Atom  1 has atomic number  7 and mass  14.00307

 Molecular mass:    70.02795 amu.
 Principal axes and moments of inertia in atomic units:
                           1         2         3
     EIGENVALUES --   168.52203 171.37722 339.89925
           X            0.87667   0.48109   0.00000
           Y           -0.48109   0.87667   0.00000
           Z            0.00000   0.00000   1.00000
 THIS MOLECULE IS AN ASYMMETRIC TOP.
 ROTATIONAL SYMMETRY NUMBER  1.
 ROTATIONAL TEMPERATURES (KELVIN)      0.51396     0.50540     0.25482
 ROTATIONAL CONSTANTS (GHZ)           10.70923    10.53081     5.30964
 Zero-point vibrational energy     131171.9 (Joules/Mol)
                                   31.35084 (Kcal/Mol)
 WARNING-- EXPLICIT CONSIDERATION OF   1 DEGREES OF FREEDOM AS
           VIBRATIONS MAY CAUSE SIGNIFICANT ERROR
 VIBRATIONAL TEMPERATURES:    881.45  1043.18  1117.79  1337.42  1496.95
          (KELVIN)           1539.00  1655.39  1671.41  1756.68  1967.69
                             2066.97  2261.47  2343.60  4934.15  5479.36

 Zero-point correction=                           0.049961 (Hartree/Particle)
 Thermal correction to Energy=                    0.053319
 Thermal correction to Enthalpy=                  0.054264
 Thermal correction to Gibbs Free Energy=         0.023926
 Sum of electronic and zero-point Energies=           -257.364869
 Sum of electronic and thermal Energies=              -257.361510
 Sum of electronic and thermal Enthalpies=            -257.360566
 Sum of electronic and thermal Free Energies=         -257.390904

                     E (Thermal)             CV                S
                      KCAL/MOL        CAL/MOL-KELVIN    CAL/MOL-KELVIN
 TOTAL                   33.458             10.521             63.852
 ELECTRONIC               0.000              0.000              0.000
 TRANSLATIONAL            0.889              2.981             38.656
 ROTATIONAL               0.889              2.981             23.800
 VIBRATIONAL             31.681              4.559              1.396
 VIBRATION  1             0.972              1.005              0.428
                       Q            LOG10(Q)             LN(Q)
 TOTAL BOT       0.988697D-11        -11.004937        -25.339804
 TOTAL V=0       0.944613D+12         11.975254         27.574041
 VIB (BOT)       0.121023D-22        -22.917134        -52.768651
 VIB (BOT)  1    0.240558D+00         -0.618780         -1.424794
 VIB (V=0)       0.115626D+01          0.063057          0.145194
 VIB (V=0)  1    0.105486D+01          0.023194          0.053407
 ELECTRONIC      0.100000D+01          0.000000          0.000000
 TRANSLATIONAL   0.230339D+08          7.362368         16.952478
 ROTATIONAL      0.354674D+05          4.549829         10.476369
 ***** Axes restored to original set *****
 -------------------------------------------------------------------
 Center     Atomic                   Forces (Hartrees/Bohr)
 Number     Number              X              Y              Z
 -------------------------------------------------------------------
    1          7          -0.000009354   -0.000053755    0.000000000
    2          7          -0.000135231   -0.000134800    0.000000000
    3          7          -0.000059858    0.000167287    0.000000000
    4          1           0.000037304   -0.000018276    0.000000000
    5          7          -0.000039396    0.000402343    0.000000000
    6          6           0.000196254   -0.000332848    0.000000000
    7          1           0.000010282   -0.000029951    0.000000000
 -------------------------------------------------------------------
 Cartesian Forces:  Max     0.000402343 RMS     0.000135658

 GradGradGradGradGradGradGradGradGradGradGradGradGradGradGradGradGradGrad
 Berny optimization.
 Internal  Forces:  Max     0.000212976 RMS     0.000087536
 Search for a local minimum.
 Step number   1 out of a maximum of  36
 All quantities printed in internal units (Hartrees-Bohrs-Radians)
 Second derivative matrix not updated -- analytic derivatives used.
     Eigenvalues ---    0.00903   0.02900   0.07791   0.08477   0.11457
     Eigenvalues ---    0.11831   0.23833   0.30103   0.40049   0.41129
     Eigenvalues ---    0.50330   0.51501   0.53844   0.65239   0.71159
     Eigenvalues --- 1000.000001000.000001000.000001000.000001000.00000
     Eigenvalues --- 1000.000001000.000001000.000001000.000001000.00000
     Eigenvalues --- 1000.00000
 Angle between quadratic step and forces=  23.24 degrees.
 Linear search not attempted -- first point.
 Iteration  1 RMS(Cart)=  0.00020249 RMS(Int)=  0.00000005
 Iteration  2 RMS(Cart)=  0.00000004 RMS(Int)=  0.00000002
 Variable       Old X    -DE/DX   Delta X   Delta X   Delta X     New X
                                 (Linear)    (Quad)   (Total)
    R1        2.41081  -0.00012   0.00000  -0.00008  -0.00008   2.41073
    R2        2.55615  -0.00017   0.00000  -0.00064  -0.00064   2.55551
    R3        2.52546   0.00004   0.00000  -0.00010  -0.00010   2.52536
    R4        1.89589   0.00003   0.00000   0.00007   0.00007   1.89596
    R5        2.52558   0.00009   0.00000   0.00028   0.00028   2.52587
    R6        2.46217   0.00014   0.00000   0.00031   0.00031   2.46248
    R7        2.02769   0.00003   0.00000   0.00004   0.00004   2.02774
    A1        1.94193  -0.00008   0.00000  -0.00013  -0.00013   1.94180
    A2        1.85411   0.00010   0.00000   0.00010   0.00010   1.85421
    A3        2.10125   0.00003   0.00000   0.00009   0.00009   2.10134
    A4        1.89310   0.00000   0.00000   0.00013   0.00013   1.89323
    A5        2.28884  -0.00003   0.00000  -0.00023  -0.00023   2.28861
    A6        1.84474   0.00019   0.00000   0.00052   0.00052   1.84526
    A7        1.89090  -0.00021   0.00000  -0.00062  -0.00062   1.89028
    A8        2.18116   0.00011   0.00000   0.00039   0.00039   2.18155
    A9        2.21113   0.00010   0.00000   0.00023   0.00023   2.21135
    D1        0.00000   0.00000   0.00000   0.00000   0.00000   0.00000
    D2        0.00000   0.00000   0.00000   0.00000   0.00000   0.00000
    D3        3.14159   0.00000   0.00000   0.00000   0.00000   3.14159
    D4        0.00000   0.00000   0.00000   0.00000   0.00000   0.00000
    D5        0.00000   0.00000   0.00000   0.00000   0.00000   0.00000
    D6        3.14159   0.00000   0.00000   0.00000   0.00000   3.14159
    D7        3.14159   0.00000   0.00000   0.00000   0.00000   3.14159
    D8        0.00000   0.00000   0.00000   0.00000   0.00000   0.00000
    D9        0.00000   0.00000   0.00000   0.00000   0.00000   0.00000
   D10        3.14159   0.00000   0.00000   0.00000   0.00000   3.14159
         Item               Value     Threshold  Converged?
 Maximum Force            0.000213     0.000450     YES
 RMS     Force            0.000088     0.000300     YES
 Maximum Displacement     0.000661     0.001800     YES
 RMS     Displacement     0.000202     0.001200     YES
 Predicted change in Energy=-2.573875D-07
 Optimization completed.
    -- Stationary point found.
                         ----------------------------
                         !   Optimized Parameters   !
                         ! (Angstroms and Degrees)  !
 ------------------------                            -------------------------
 ! Name  Definition              Value          Derivative Info.             !
 -----------------------------------------------------------------------------
 ! R1    R(1,2)                  1.2757         -DE/DX =   -0.0001           !
 ! R2    R(1,5)                  1.3527         -DE/DX =   -0.0002           !
 ! R3    R(2,3)                  1.3364         -DE/DX =    0.               !
 ! R4    R(3,4)                  1.0033         -DE/DX =    0.               !
 ! R5    R(3,6)                  1.3365         -DE/DX =    0.0001           !
 ! R6    R(5,6)                  1.3029         -DE/DX =    0.0001           !
 ! R7    R(6,7)                  1.073          -DE/DX =    0.               !
 ! A1    A(2,1,5)              111.2644         -DE/DX =   -0.0001           !
 ! A2    A(1,2,3)              106.2327         -DE/DX =    0.0001           !
 ! A3    A(2,3,4)              120.3928         -DE/DX =    0.               !
 ! A4    A(2,3,6)              108.4665         -DE/DX =    0.               !
 ! A5    A(4,3,6)              131.1407         -DE/DX =    0.               !
 ! A6    A(1,5,6)              105.6957         -DE/DX =    0.0002           !
 ! A7    A(3,6,5)              108.3406         -DE/DX =   -0.0002           !
 ! A8    A(3,6,7)              124.9711         -DE/DX =    0.0001           !
 ! A9    A(5,6,7)              126.6882         -DE/DX =    0.0001           !
 ! D1    D(5,1,2,3)              0.             -DE/DX =    0.               !
 ! D2    D(2,1,5,6)              0.             -DE/DX =    0.               !
 ! D3    D(1,2,3,4)            180.             -DE/DX =    0.               !
 ! D4    D(1,2,3,6)              0.             -DE/DX =    0.               !
 ! D5    D(2,3,6,5)              0.             -DE/DX =    0.               !
 ! D6    D(2,3,6,7)            180.             -DE/DX =    0.               !
 ! D7    D(4,3,6,5)            180.             -DE/DX =    0.               !
 ! D8    D(4,3,6,7)              0.             -DE/DX =    0.               !
 ! D9    D(1,5,6,3)              0.             -DE/DX =    0.               !
 ! D10   D(1,5,6,7)            180.             -DE/DX =    0.               !
 -----------------------------------------------------------------------------
 GradGradGradGradGradGradGradGradGradGradGradGradGradGradGradGradGradGrad

 1\1\ NATIONAL INSTITUTE OF STANDARDS AND TECHNOLOGY-TAY\Freq\RCISD-FC\
 6-31G(d)\C1H2N4\RDJ3\06-Aug-1999\0\\#N GEOM=ALLCHECK GUESS=TCHECK RCIS
 D(FC)/6-31G(D) FREQ\\1H tetrazole c CH-NH-N=N-N= casno=288948\\0,1\N,-
 1.0486399181,0.5067695576,0.\N,0.0551001888,1.1465264142,0.\N,1.021776
 3199,0.2237332817,0.\H,1.9864762455,0.4992208236,0.\N,-0.8409253207,-0
 .829841957,0.\C,0.4526667034,-0.9855216926,0.\H,0.9863446447,-1.916401
 7431,0.\\Version=SGI64-G98RevA.7\State=1-A'\HF=-256.7526468\MP2=-257.5
 327483\MP3=-257.5313744\CISD=-257.4148298\RMSD=1.770e-09\RMSF=1.357e-0
 4\Dipole=2.1227768,-0.5872087,0.\DipoleDeriv=-0.1636984,0.0358123,0.,-
 0.035004,0.2285507,0.,0.,0.,-0.1547233,0.27753,-0.2287267,0.,-0.242743
 2,-0.3250085,0.,0.,0.,-0.0919169,-0.6099157,-0.0386253,0.,0.0435668,-0
 .1136366,0.,0.,0.,-0.2085264,0.3211783,0.0440145,0.,0.0292864,0.232437
 5,0.,0.,0.,0.3773523,-0.3453346,0.1391726,0.,-0.016865,-0.4449069,0.,0
 .,0.,-0.236023,0.427712,0.0181285,0.,0.189722,0.3334649,0.,0.,0.,0.147
 0591,0.092679,0.0302167,0.,0.0317012,0.0890047,0.,0.,0.,0.1667342\PG=C
 S [SG(C1H2N4)]\NImag=0\\0.71894989,0.00464953,0.49817754,0.,0.,0.13723
 990,-0.36528062,-0.16995150,0.,0.58408066,-0.10637080,-0.20620454,0.,0
 .09376879,0.65835026,0.,0.,-0.10741161,0.,0.,0.12729424,-0.17590825,-0
 .03900899,0.,-0.17322418,0.05835729,0.,1.06859873,0.04864235,-0.017746
 64,0.,0.10648949,-0.23670710,0.,0.17404628,0.73074620,0.,0.,0.02985803
 ,0.,0.,-0.07525678,0.,0.,0.10055031,-0.00257676,0.00462102,0.,-0.01510
 327,-0.01265360,0.,-0.46674230,-0.11313599,0.,0.48055508,0.01214066,-0
 .00628406,0.,0.02565297,0.02192815,0.,-0.12334230,-0.11736550,0.,0.118
 40445,0.10002386,0.,0.,0.00860926,0.,0.,-0.01325596,0.,0.,-0.00772364,
 0.,0.,0.01524762,-0.12621192,0.05208724,0.,-0.00829979,-0.00027408,0.,
 -0.10070986,-0.11667498,0.,0.00267149,-0.00700702,0.,0.69750207,0.0126
 4963,-0.22747457,0.,-0.11954255,-0.11772085,0.,0.01445339,0.00350477,0
 .,0.00115921,-0.00847528,0.,0.04148237,0.47907753,0.,0.,-0.09878162,0.
 ,0.,0.03951023,0.,0.,0.02255968,0.,0.,0.00840202,0.,0.,0.12039306,-0.0
 4242503,0.14440214,0.,-0.01781472,-0.02765478,0.,-0.16924661,-0.078410
 81,0.,0.00136925,-0.02630790,0.,-0.45875270,0.01966950,0.,0.83138040,0
 .03072475,-0.04200534,0.,0.06624934,-0.11733408,0.,-0.10168722,-0.3464
 2820,0.,0.00198541,0.01087936,0.,0.03108507,-0.13651771,0.,-0.17260664
 ,0.94679164,0.,0.,0.02042817,0.,0.,0.02210684,0.,0.,-0.06763562,0.,0.,
 -0.01038757,0.,0.,-0.08727854,0.,0.,0.15860792,-0.00655173,0.00321144,
 0.,-0.00437430,-0.00517834,0.,0.01725843,-0.02094758,0.,-0.00017248,0.
 00045823,0.,-0.00619166,0.03012950,0.,-0.14452361,0.14423341,0.,0.1445
 5442,-0.00243213,0.00156726,0.,-0.00267252,-0.00232928,0.,0.01718637,-
 0.01599137,0.,-0.00038377,-0.00070553,0.,-0.00067307,0.00757405,0.,0.1
 4088228,-0.31538000,0.,-0.15190553,0.32526590,0.,0.,0.01003208,0.,0.,0
 .00700104,0.,0.,-0.00234131,0.,0.,-0.00088840,0.,0.,-0.00479305,0.,0.,
 -0.03583606,0.,0.,0.02683258\\0.00000935,0.00005376,0.,0.00013523,0.00
 013480,0.,0.00005986,-0.00016729,0.,-0.00003730,0.00001828,0.,0.000039
 40,-0.00040234,0.,-0.00019625,0.00033285,0.,-0.00001028,0.00002995,0.\
 \\@

 THE SECRET OF SUCCESS IN LIFE IS TO EAT WHAT YOU LIKE, AND LET THE FOOD
 FIGHT IT OUT INSIDE YOU. -- FROM A FORTUNE COOKIE
 Job cpu time:  0 days  6 hours 14 minutes 26.6 seconds.
 File lengths (MBytes):  RWF=  331 Int=    0 D2E=    0 Chk=    6 Scr=    1
 Normal termination of Gaussian 98.
