 Gaussian 03, Revision C.02,
 Gaussian 03:  IA32L-G03RevC.02 12-Jun-2004

 ----------------------------
 #B3PW91/6-311G(d,p) opt freq
 ----------------------------

 -----------------------------------------------------------
 1H tetrazole c CH-NH-N=N-N= casno=288948 method=16 basis=21
 -----------------------------------------------------------
 Symbolic Z-matrix:
 Charge =  0 Multiplicity = 1

 SCF Done:  E(RB+HF-PW91) =  -258.214474865     A.U. after   14 cycles
 SCF Done:  E(RB+HF-PW91) =  -258.216966603     A.U. after   12 cycles
 SCF Done:  E(RB+HF-PW91) =  -258.217014223     A.U. after    9 cycles
 SCF Done:  E(RB+HF-PW91) =  -258.217021102     A.U. after    9 cycles
 SCF Done:  E(RB+HF-PW91) =  -258.217023615     A.U. after    8 cycles
 Optimization completed.
    -- Stationary point found.
 Normal termination of Gaussian 03 at Fri Jan  7 18:14:22 2005.

 ----------------------------------------------------------------------
 #N Geom=AllCheck Guess=Read SCRF=Check GenChk RB3PW91/6-311G(d,p) Freq
 ----------------------------------------------------------------------

 1H tetrazole c CH-NH-N=N-N= casno=288948 method=16 basis=21
 -----------------------------------------------------------
 Redundant internal coordinates taken from checkpoint file:
 /scratch/Gau-30706.chk
 Charge =  0 Multiplicity = 1

                         Standard orientation:
 ---------------------------------------------------------------------
 Center     Atomic     Atomic              Coordinates (Angstroms)
 Number     Number      Type              X           Y           Z
 ---------------------------------------------------------------------
    1          7             0       -0.720745   -0.920404    0.000000
    2          7             0       -1.115031    0.301445    0.000000
    3          7             0        0.000000    1.050631    0.000000
    4          1             0       -0.060576    2.056783    0.000000
    5          7             0        0.633247   -1.004330    0.000000
    6          6             0        1.064340    0.232466    0.000000
    7          1             0        2.092241    0.557034    0.000000
 ---------------------------------------------------------------------

 SCF Done:  E(RB+HF-PW91) =  -258.217023615     A.U. after    1 cycles

 The electronic state is 1-A'.
 Alpha  occ. eigenvalues --  -14.42234 -14.38484 -14.36684 -14.33869 -10.25490
 Alpha  occ. eigenvalues --   -1.16460  -0.96303  -0.90982  -0.69318  -0.67940
 Alpha  occ. eigenvalues --   -0.60968  -0.51177  -0.51033  -0.39007  -0.34440
 Alpha  occ. eigenvalues --   -0.32225  -0.31313  -0.29841
 Alpha virt. eigenvalues --   -0.02967   0.00752   0.02722   0.07010   0.16447
 Alpha virt. eigenvalues --    0.18222   0.21876   0.27222   0.32321   0.38899
 Alpha virt. eigenvalues --    0.39926   0.43200   0.48893   0.53984   0.55767

 Mulliken atomic charges:
              1
     1  N   -0.086941
     2  N   -0.031900
     3  N   -0.287169
     4  H    0.261809
     5  N   -0.249418
     6  C    0.240035
     7  H    0.153584
 Sum of Mulliken charges=   0.00000

 Dipole moment (field-independent basis, Debye):
    X=     2.5115    Y=     4.7944    Z=     0.0000  Tot=     5.4124
 Quadrupole moment (field-independent basis, Debye-Ang):
   XX=   -28.7655   YY=   -26.2958   ZZ=   -28.1923
   XY=     1.8120   XZ=     0.0000   YZ=     0.0000

  Exact polarizability:  38.833   0.971  38.241   0.000   0.000  17.753
 Approx polarizability:  66.391   0.457  70.286   0.000   0.000  26.552

                     1                      2                      3
                    A"                     A"                     A"
 Frequencies --   619.0338               700.6333               747.1756
 Red. masses --     1.9663                 1.7894                 7.4213
 Frc consts  --     0.4440                 0.5175                 2.4410
 IR Inten    --    80.5179                14.2829                10.3219

                     4                      5                      6
                    A"                     A'                     A'
 Frequencies --   869.3342               981.6688              1020.3456
 Red. masses --     1.3775                 4.3491                 6.0646
 Frc consts  --     0.6134                 2.4693                 3.7200
 IR Inten    --    17.8209                 4.5229                 0.5645

                     7                      8                      9
                    A'                     A'                     A'
 Frequencies --  1063.9917              1082.1092              1152.8733
 Red. masses --     4.3726                 3.4607                 2.0413
 Frc consts  --     2.9165                 2.3876                 1.5985
 IR Inten    --    18.6830                28.4633                15.0951

                    10                     11                     12
                    A'                     A'                     A'
 Frequencies --  1275.2801              1315.4337              1469.9189
 Red. masses --     2.4189                10.1739                 3.3540
 Frc consts  --     2.3179                10.3724                 4.2697
 IR Inten    --     1.9848                16.6336                 8.7973

                    13                     14                     15
                    A'                     A'                     A'
 Frequencies --  1521.9488              3288.7831              3669.1068
 Red. masses --     3.3171                 1.1012                 1.0838
 Frc consts  --     4.5270                 7.0176                 8.5963
 IR Inten    --    16.5377                 1.5297                95.3767

 - Thermochemistry -
 -------------------
 Temperature   298.150 Kelvin.  Pressure   1.00000 Atm.
 Atom  1 has atomic number  7 and mass  14.00307

 Molecular mass:    70.02795 amu.
 Principal axes and moments of inertia in atomic units:
                           1         2         3
     EIGENVALUES --   170.04392 173.11955 343.16348
           X            0.85750   0.51448   0.00000
           Y           -0.51448   0.85750   0.00000
           Z            0.00000   0.00000   1.00000
 This molecule is an asymmetric top.
 Rotational symmetry number  1.
 Rotational temperatures (Kelvin)      0.50936     0.50031     0.25240
 Rotational constants (GHZ):          10.61338    10.42483     5.25913
 Zero-point vibrational energy     124277.9 (Joules/Mol)
                                   29.70312 (Kcal/Mol)
 Warning -- explicit consideration of   1 degrees of freedom as
           vibrations may cause significant error
 Vibrational temperatures:    890.65  1008.05  1075.02  1250.78  1412.40
          (Kelvin)           1468.05  1530.84  1556.91  1658.73  1834.84
                             1892.61  2114.88  2189.74  4731.82  5279.02

 Zero-point correction=                           0.047335 (Hartree/Particle)
 Thermal correction to Energy=                    0.050768
 Thermal correction to Enthalpy=                  0.051712
 Thermal correction to Gibbs Free Energy=         0.021267
 Sum of electronic and zero-point Energies=           -258.169689
 Sum of electronic and thermal Energies=              -258.166256
 Sum of electronic and thermal Enthalpies=            -258.165312
 Sum of electronic and thermal Free Energies=         -258.195757

                     E (Thermal)             CV                S
                      KCal/Mol        Cal/Mol-Kelvin    Cal/Mol-Kelvin
 Total                   31.857             11.119             64.076
 Electronic               0.000              0.000              0.000
 Translational            0.889              2.981             38.656
 Rotational               0.889              2.981             23.828
 Vibrational             30.080              5.157              1.592
 Vibration  1             0.979              0.992              0.418

 Optimization completed.
    -- Stationary point found.
 Normal termination of Gaussian 03 at Fri Jan  7 18:24:16 2005.
