 Gaussian 98, Revision A.7,
 Gaussian 98:  SGI64-G98RevA.7 11-Apr-1999

 ------------------------
 #B3PW91/6-311G* opt freq
 ------------------------

 ----------------------------------------
 1H tetrazole c CH-NH-N=N-N= casno=288948
 ----------------------------------------
 Symbolic Z-matrix:
 Charge =  0 Multiplicity = 1

 SCF Done:  E(RB+HF-PW91) =  -258.209494270     A.U. after   15 cycles
 SCF Done:  E(RB+HF-PW91) =  -258.211964987     A.U. after   12 cycles
 SCF Done:  E(RB+HF-PW91) =  -258.212013703     A.U. after    9 cycles
 SCF Done:  E(RB+HF-PW91) =  -258.212020875     A.U. after    9 cycles
 SCF Done:  E(RB+HF-PW91) =  -258.212022927     A.U. after    8 cycles
 Optimization completed.
    -- Stationary point found.
 Normal termination of Gaussian 98.

 ----------------------------------------------------
 #N Geom=AllCheck Guess=TCheck RB3PW91/6-311G(d) Freq
 ----------------------------------------------------

 1H tetrazole c CH-NH-N=N-N= casno=288948
 ----------------------------------------
 Redundant internal coordinates taken from checkpointfile:
 /tmp/Gau-1675449.chk
 Charge =  0 Multiplicity = 1

                         Standard orientation:
 ---------------------------------------------------------------------
 Center     Atomic     Atomic              Coordinates (Angstroms)
 Number     Number      Type              X           Y           Z
 ---------------------------------------------------------------------
    1          7             0       -0.720738   -0.920306    0.000000
    2          7             0       -1.114907    0.301637    0.000000
    3          7             0        0.000000    1.050580    0.000000
    4          1             0       -0.061690    2.055739    0.000000
    5          7             0        0.633505   -1.004278    0.000000
    6          6             0        1.064024    0.232319    0.000000
    7          1             0        2.092522    0.556921    0.000000
 ---------------------------------------------------------------------

 SCF Done:  E(RB+HF-PW91) =  -258.212022927     A.U. after    1 cycles

  The electronic state is 1-A'.
 Alpha  occ. eigenvalues --  -14.42218 -14.38459 -14.36645 -14.33822 -10.25501
 Alpha  occ. eigenvalues --   -1.16468  -0.96346  -0.90986  -0.69440  -0.67954
 Alpha  occ. eigenvalues --   -0.61070  -0.51149  -0.51105  -0.39005  -0.34391
 Alpha  occ. eigenvalues --   -0.32182  -0.31294  -0.29819
 Alpha virt. eigenvalues --   -0.02833   0.00845   0.02687   0.07039   0.16565
 Alpha virt. eigenvalues --    0.18360   0.21883   0.27324   0.32328   0.38918
 Alpha virt. eigenvalues --    0.39985   0.43137   0.49313   0.54496   0.55903

  Exact polarizability:  38.599   0.971  38.014   0.000   0.001  17.508
 Approx polarizability:  65.926   0.382  69.665   0.000   0.000  26.132

                     1                      2                      3
                    A"                     A"                     A"
 Frequencies --   611.9978               702.2456               747.4601
 Red. masses --     1.9585                 1.7977                 7.5429
 Frc consts  --     0.4322                 0.5223                 2.4829
 IR Inten    --    87.9784                14.5831                 9.9657
 Raman Activ --     0.0000                 0.0000                 0.0000

                     4                      5                      6
                    A"                     A'                     A'
 Frequencies --   853.7169               982.1179              1022.5220
 Red. masses --     1.3724                 4.4677                 6.3598
 Frc consts  --     0.5893                 2.5390                 3.9178
 IR Inten    --    20.1502                 4.8125                 0.5293
 Raman Activ --     0.0000                 0.0000                 0.0000

                     7                      8                      9
                    A'                     A'                     A'
 Frequencies --  1066.5871              1084.7772              1154.8181
 Red. masses --     4.5345                 3.5659                 2.0029
 Frc consts  --     3.0393                 2.4723                 1.5737
 IR Inten    --    17.2903                29.8292                14.6455
 Raman Activ --     0.0000                 0.0000                 0.0000

                    10                     11                     12
                    A'                     A'                     A'
 Frequencies --  1280.0868              1315.8424              1478.3005
 Red. masses --     2.4450                10.2871                 3.3979
 Frc consts  --     2.3605                10.4942                 4.3751
 IR Inten    --     1.8766                16.8884                 9.0388
 Raman Activ --     0.0000                 0.0000                 0.0000

                    13                     14                     15
                    A'                     A'                     A'
 Frequencies --  1530.8922              3291.6454              3684.0735
 Red. masses --     3.0143                 1.1012                 1.0836
 Frc consts  --     4.1623                 7.0301                 8.6649
 IR Inten    --    18.0636                 0.4717                75.4663
 Raman Activ --     0.0000                 0.0000                 0.0000

 - Thermochemistry -
 -------------------
 Temperature   298.150 Kelvin.  Pressure   1.00000 Atm.
 Atom  1 has atomic number  7 and mass  14.00307

 Molecular mass:    70.02795 amu.
 Principal axes and moments of inertia in atomic units:
                           1         2         3
     EIGENVALUES --   169.97713 173.13187 343.10900
           X            0.85502   0.51860   0.00000
           Y           -0.51860   0.85502   0.00000
           Z            0.00000   0.00000   1.00000
 THIS MOLECULE IS AN ASYMMETRIC TOP.
 ROTATIONAL SYMMETRY NUMBER  1.
 ROTATIONAL TEMPERATURES (KELVIN)      0.50956     0.50027     0.25244
 ROTATIONAL CONSTANTS (GHZ)           10.61755    10.42408     5.25996
 Zero-point vibrational energy     124454.0 (Joules/Mol)
                                   29.74522 (Kcal/Mol)
 WARNING-- EXPLICIT CONSIDERATION OF   1 DEGREES OF FREEDOM AS
           VIBRATIONS MAY CAUSE SIGNIFICANT ERROR
 VIBRATIONAL TEMPERATURES:    880.52  1010.37  1075.42  1228.30  1413.04
          (KELVIN)           1471.17  1534.57  1560.74  1661.52  1841.75
                             1893.19  2126.93  2202.60  4735.92  5300.53

 Zero-point correction=                           0.047402 (Hartree/Particle)
 Thermal correction to Energy=                    0.050840
 Thermal correction to Enthalpy=                  0.051784
 Thermal correction to Gibbs Free Energy=         0.021332
 Sum of electronic and zero-point Energies=           -258.164621
 Sum of electronic and thermal Energies=              -258.161183
 Sum of electronic and thermal Enthalpies=            -258.160239
 Sum of electronic and thermal Free Energies=         -258.190691

                     E (Thermal)             CV                S
                      KCAL/MOL        CAL/MOL-KELVIN    CAL/MOL-KELVIN
 TOTAL                   31.902             11.137             64.091
 ELECTRONIC               0.000              0.000              0.000
 TRANSLATIONAL            0.889              2.981             38.656
 ROTATIONAL               0.889              2.981             23.828
 VIBRATIONAL             30.125              5.175              1.607
 VIBRATION  1             0.971              1.006              0.429
                       Q            LOG10(Q)             LN(Q)
 TOTAL BOT       0.154177D-09         -9.811980        -22.592919
 TOTAL V=0       0.980149D+12         11.991292         27.610970
 VIB (BOT)       0.186081D-21        -21.730297        -50.035858
 VIB (BOT)  1    0.240974D+00         -0.618030         -1.423067
 VIB (V=0)       0.118297D+01          0.072975          0.168032
 VIB (V=0)  1    0.105504D+01          0.023269          0.053578
 ELECTRONIC      0.100000D+01          0.000000          0.000000
 TRANSLATIONAL   0.230339D+08          7.362368         16.952478
 ROTATIONAL      0.359707D+05          4.555949         10.490461
 ***** Axes restored to original set *****
 -------------------------------------------------------------------
 Center     Atomic                   Forces (Hartrees/Bohr)
 Number     Number              X              Y              Z
 -------------------------------------------------------------------
    1          7           0.000235905   -0.000208378    0.000000000
    2          7           0.000199513   -0.000246625    0.000000000
    3          7          -0.000252995    0.000113650    0.000000000
    4          1           0.000031052   -0.000009952    0.000000000
    5          7          -0.000453191    0.000400649    0.000000000
    6          6           0.000243447   -0.000026417    0.000000000
    7          1          -0.000003731   -0.000022928    0.000000000
 -------------------------------------------------------------------
 Cartesian Forces:  Max     0.000453191 RMS     0.000183107

 GradGradGradGradGradGradGradGradGradGradGradGradGradGradGradGradGradGrad
 Berny optimization.
 Internal  Forces:  Max     0.000432784 RMS     0.000112329
 Search for a local minimum.
 Step number   1 out of a maximum of  36
 All quantities printed in internal units (Hartrees-Bohrs-Radians)
 Second derivative matrix not updated -- analytic derivatives used.
     Eigenvalues ---    0.00896   0.02523   0.07318   0.07910   0.10218
     Eigenvalues ---    0.10808   0.20283   0.25160   0.35424   0.37829
     Eigenvalues ---    0.44219   0.47657   0.48717   0.58642   0.64201
     Eigenvalues --- 1000.000001000.000001000.000001000.000001000.00000
     Eigenvalues --- 1000.000001000.000001000.000001000.000001000.00000
     Eigenvalues --- 1000.00000
 Angle between quadratic step and forces=  23.40 degrees.
 Linear search not attempted -- first point.
 Iteration  1 RMS(Cart)=  0.00028951 RMS(Int)=  0.00000006
 Iteration  2 RMS(Cart)=  0.00000006 RMS(Int)=  0.00000003
 Variable       Old X    -DE/DX   Delta X   Delta X   Delta X     New X
                                 (Linear)    (Quad)   (Total)
    R1        2.42630  -0.00011   0.00000   0.00011   0.00011   2.42642
    R2        2.56406  -0.00043   0.00000  -0.00158  -0.00158   2.56248
    R3        2.53810  -0.00017   0.00000  -0.00063  -0.00063   2.53747
    R4        1.90305   0.00001   0.00000   0.00002   0.00002   1.90307
    R5        2.53653   0.00001   0.00000   0.00014   0.00014   2.53667
    R6        2.47440   0.00012   0.00000   0.00042   0.00042   2.47482
    R7        2.03808   0.00001   0.00000  -0.00003  -0.00003   2.03805
    A1        1.94476  -0.00005   0.00000  -0.00009  -0.00009   1.94467
    A2        1.85027   0.00014   0.00000   0.00012   0.00012   1.85039
    A3        2.10102   0.00006   0.00000   0.00014   0.00014   2.10116
    A4        1.89451  -0.00007   0.00000   0.00009   0.00009   1.89460
    A5        2.28766   0.00001   0.00000  -0.00023  -0.00023   2.28743
    A6        1.84389   0.00014   0.00000   0.00057   0.00057   1.84447
    A7        1.89134  -0.00015   0.00000  -0.00069  -0.00069   1.89065
    A8        2.18031   0.00009   0.00000   0.00056   0.00056   2.18088
    A9        2.21153   0.00006   0.00000   0.00013   0.00013   2.21166
    D1        0.00000   0.00000   0.00000   0.00000   0.00000   0.00000
    D2        0.00000   0.00000   0.00000   0.00000   0.00000   0.00000
    D3        3.14159   0.00000   0.00000   0.00000   0.00000   3.14159
    D4        0.00000   0.00000   0.00000   0.00000   0.00000   0.00000
    D5        0.00000   0.00000   0.00000   0.00000   0.00000   0.00000
    D6        3.14159   0.00000   0.00000   0.00000   0.00000   3.14159
    D7        3.14159   0.00000   0.00000   0.00000   0.00000   3.14159
    D8        0.00000   0.00000   0.00000   0.00000   0.00000   0.00000
    D9        0.00000   0.00000   0.00000   0.00000   0.00000   0.00000
   D10        3.14159   0.00000   0.00000   0.00000   0.00000   3.14159
         Item               Value     Threshold  Converged?
 Maximum Force            0.000433     0.000450     YES
 RMS     Force            0.000112     0.000300     YES
 Maximum Displacement     0.000852     0.001800     YES
 RMS     Displacement     0.000290     0.001200     YES
 Predicted change in Energy=-5.488626D-07
 Optimization completed.
    -- Stationary point found.
                         ----------------------------
                         !   Optimized Parameters   !
                         ! (Angstroms and Degrees)  !
 ------------------------                            -------------------------
 ! Name  Definition              Value          Derivative Info.             !
 -----------------------------------------------------------------------------
 ! R1    R(1,2)                  1.2839         -DE/DX =   -0.0001           !
 ! R2    R(1,5)                  1.3568         -DE/DX =   -0.0004           !
 ! R3    R(2,3)                  1.3431         -DE/DX =   -0.0002           !
 ! R4    R(3,4)                  1.0071         -DE/DX =    0.               !
 ! R5    R(3,6)                  1.3423         -DE/DX =    0.               !
 ! R6    R(5,6)                  1.3094         -DE/DX =    0.0001           !
 ! R7    R(6,7)                  1.0785         -DE/DX =    0.               !
 ! A1    A(2,1,5)              111.4266         -DE/DX =   -0.0001           !
 ! A2    A(1,2,3)              106.0129         -DE/DX =    0.0001           !
 ! A3    A(2,3,4)              120.3793         -DE/DX =    0.0001           !
 ! A4    A(2,3,6)              108.5474         -DE/DX =   -0.0001           !
 ! A5    A(4,3,6)              131.0732         -DE/DX =    0.               !
 ! A6    A(1,5,6)              105.6473         -DE/DX =    0.0001           !
 ! A7    A(3,6,5)              108.3657         -DE/DX =   -0.0002           !
 ! A8    A(3,6,7)              124.9227         -DE/DX =    0.0001           !
 ! A9    A(5,6,7)              126.7115         -DE/DX =    0.0001           !
 ! D1    D(5,1,2,3)              0.             -DE/DX =    0.               !
 ! D2    D(2,1,5,6)              0.             -DE/DX =    0.               !
 ! D3    D(1,2,3,4)            180.             -DE/DX =    0.               !
 ! D4    D(1,2,3,6)              0.             -DE/DX =    0.               !
 ! D5    D(2,3,6,5)              0.             -DE/DX =    0.               !
 ! D6    D(2,3,6,7)            180.             -DE/DX =    0.               !
 ! D7    D(4,3,6,5)            180.             -DE/DX =    0.               !
 ! D8    D(4,3,6,7)              0.             -DE/DX =    0.               !
 ! D9    D(1,5,6,3)              0.             -DE/DX =    0.               !
 ! D10   D(1,5,6,7)            180.             -DE/DX =    0.               !
 -----------------------------------------------------------------------------
 GradGradGradGradGradGradGradGradGradGradGradGradGradGradGradGradGradGrad

 1\1\ NATIONAL INSTITUTE OF STANDARDS AND TECHNOLOGY-NEVA\Freq\RB3PW91\
 6-311G(d)\C1H2N4\RDJ3\26-May-2000\0\\#N GEOM=ALLCHECK GUESS=TCHECK RB3
 PW91/6-311G(D) FREQ\\1H tetrazole c CH-NH-N=N-N= casno=288948\\0,1\N,-
 1.1387016246,-0.2641677438,0.\N,-0.6786968353,0.9345438615,0.\N,0.6593
 357605,0.8179205118,0.\H,1.2421375163,1.6391958867,0.\N,-0.1370667645,
 -1.1794558863,0.\C,0.9741888814,-0.4869028037,0.\H,1.978635443,-0.8796
 64267,0.\\Version=SGI64-G98RevA.7\State=1-A'\HF=-258.2120229\RMSD=2.53
 1e-09\RMSF=1.831e-04\Dipole=1.9635718,0.8568349,0.\DipoleDeriv=-0.0560
 795,-0.1591466,-0.000041,-0.2096306,0.0935907,0.0000058,-0.0000356,0.0
 00018,-0.1574284,0.2520453,0.266735,0.0000051,0.2360594,-0.3255582,0.0
 000335,0.0000036,0.0000637,-0.0940816,-0.3330718,-0.2845243,-0.0000023
 ,-0.1945907,-0.2039922,0.0000051,0.0000366,-0.0000417,-0.1582327,0.214
 074,0.029999,-0.0000003,0.0140774,0.2426723,0.0000045,-0.0000125,-0.00
 00219,0.3546096,-0.3467662,0.1278941,0.0000354,-0.000546,-0.3527763,-0
 .0000416,-0.000052,-0.0000347,-0.2077494,0.230401,0.0065063,0.0000182,
 0.1346261,0.4279608,-0.0000094,0.0000971,0.0000162,0.0877109,0.0393985
 ,0.0125363,-0.0000151,0.0200048,0.1181031,0.0000022,-0.000037,0.000000
 4,0.1751716\Polar=39.3171396,-0.0797765,37.2953717,0.0008971,0.0007868
 ,17.5083559\PG=CS [SG(C1H2N4)]\NImag=0\\0.56072552,0.09567457,0.490454
 99,0.00000159,-0.00000134,0.12714374,-0.14152160,-0.11226207,-0.000003
 70,0.43807198,-0.05232368,-0.32865306,-0.00000250,-0.03301571,0.622569
 27,-0.00000164,0.00000474,-0.09900232,0.00000376,0.00000241,0.11754653
 ,-0.11599702,-0.11203471,0.00000130,-0.21868464,0.02480091,-0.00000735
 ,0.66659355,-0.03301447,-0.06366917,-0.00000303,0.05851891,-0.12335850
 ,-0.00000288,0.20188403,0.93891937,-0.00000119,-0.00000061,0.02694251,
 -0.00000092,-0.00000035,-0.07036052,0.00000182,0.00000196,0.09684050,-
 0.01134523,-0.00169351,0.00000282,-0.00693761,-0.03349764,0.00000089,-
 0.19831452,-0.17902850,-0.00000023,0.20169905,0.00785787,0.00152294,0.
 00000329,0.00211648,0.01254855,0.00000240,-0.18788869,-0.34458526,-0.0
 0000060,0.19863027,0.34092682,-0.00000052,-0.00000043,0.00813261,-0.00
 000013,0.00000067,-0.01204229,-0.00000041,-0.00000036,-0.00885300,0.00
 000061,0.00000089,0.01503728,-0.16657754,0.06162685,-0.00000336,-0.001
 96774,0.09079136,0.00000565,-0.00333234,-0.11422353,0.00000153,-0.0006
 1664,-0.00110307,0.00000047,0.49292508,0.02340491,-0.12903095,0.000003
 96,-0.01730424,-0.12575928,-0.00000496,0.00174487,-0.08358438,0.000000
 97,0.00910826,-0.00623348,-0.00000037,0.10731777,0.53620956,0.00000368
 ,-0.00000408,-0.09185776,0.00000142,-0.00000097,0.03613006,0.00001079,
 0.00000876,0.02123237,-0.00000888,-0.00001292,0.00776429,-0.00001107,-
 0.00000055,0.11181218,-0.12215939,0.06888933,0.00000351,-0.06862863,0.
 00711659,-0.00000231,-0.13552086,0.06916976,-0.00000029,0.01592116,-0.
 02027341,0.00000036,-0.30529636,-0.13470790,-0.00000064,0.93716910,-0.
 03526178,0.03071968,-0.00000114,0.10253453,-0.05113303,-0.00000147,0.0
 3994824,-0.31932250,-0.00000144,0.00664490,-0.00381855,-0.00000048,-0.
 12804362,-0.20622007,0.00001142,-0.09443129,0.64748056,-0.00000180,0.0
 0000291,0.01953526,-0.00000212,-0.00000100,0.02157228,-0.00000724,-0.0
 0000595,-0.06303420,0.00000680,0.00000968,-0.00916537,0.00000787,0.000
 00197,-0.07980399,0.00000041,-0.00000921,0.14002681,-0.00312474,-0.000
 20046,-0.00000215,-0.00033175,-0.00387182,0.00000098,0.00525581,-0.003
 30621,-0.00000072,-0.00040621,0.00066055,-0.00000037,-0.01513445,0.010
 43631,0.00000471,-0.32148510,0.10860905,-0.00000392,0.33522649,-0.0063
 3742,-0.00134442,0.00000076,-0.00058793,-0.00621396,-0.00000024,0.0315
 4535,-0.00439958,0.00000008,-0.00016377,-0.00036101,0.00000010,-0.0163
 6576,0.01461860,-0.00000166,0.10423690,-0.09770608,0.00000161,-0.11232
 740,0.09540645,-0.00000014,-0.00000119,0.00910596,0.00000169,0.0000017
 5,0.00615627,0.00000111,0.00000149,-0.00276767,-0.00000200,-0.00000273
 ,-0.00087352,-0.00000107,-0.00000100,-0.00527715,-0.00000106,0.0000023
 4,-0.02913079,0.00000147,-0.00000065,0.02278690\\-0.00023591,0.0002083
 8,0.,-0.00019951,0.00024662,0.,0.00025300,-0.00011365,0.,-0.00003105,0
 .00000995,0.,0.00045319,-0.00040065,0.,-0.00024345,0.00002642,0.,0.000
 00373,0.00002293,0.\\\@

 ART, GLORY, FREEDOM FAIL, BUT NATURE STILL IS FAIR.

                                           -- BYRON
 Job cpu time:  0 days  0 hours  3 minutes 54.7 seconds.
 File lengths (MBytes):  RWF=   15 Int=    0 D2E=    0 Chk=    4 Scr=    1
 Normal termination of Gaussian 98.
