 Gaussian 98, Revision A.7,
 Gaussian 98:  SGI64-G98RevA.7 11-Apr-1999

 ------------------------
 #B3PW91/cc-pVTZ opt freq
 ------------------------

 ----------------------------------------
 1H tetrazole c CH-NH-N=N-N= casno=288948
 ----------------------------------------
 Symbolic Z-matrix:
 Charge =  0 Multiplicity = 1

 SCF Done:  E(RB+HF-PW91) =  -258.243977314     A.U. after   14 cycles
 SCF Done:  E(RB+HF-PW91) =  -258.245952411     A.U. after   11 cycles
 SCF Done:  E(RB+HF-PW91) =  -258.246000954     A.U. after    9 cycles
 SCF Done:  E(RB+HF-PW91) =  -258.246009026     A.U. after    9 cycles
 SCF Done:  E(RB+HF-PW91) =  -258.246013099     A.U. after    8 cycles
 SCF Done:  E(RB+HF-PW91) =  -258.246013897     A.U. after    7 cycles
 Optimization completed.
    -- Stationary point found.
 Normal termination of Gaussian 98.

 --------------------------------------------------
 #N Geom=AllCheck Guess=TCheck RB3PW91/CC-pVTZ Freq
 --------------------------------------------------

 1H tetrazole c CH-NH-N=N-N= casno=288948
 ----------------------------------------
 Redundant internal coordinates taken from checkpointfile:
 /wrk/Gau-226270.chk
 Charge =  0 Multiplicity = 1

                         Standard orientation:
 ---------------------------------------------------------------------
 Center     Atomic     Atomic              Coordinates (Angstroms)
 Number     Number      Type              X           Y           Z
 ---------------------------------------------------------------------
    1          7             0       -0.719947   -0.919444    0.000000
    2          7             0       -1.112204    0.301059    0.000000
    3          7             0        0.000000    1.048249    0.000000
    4          1             0       -0.058713    2.052546    0.000000
    5          7             0        0.631632   -1.002499    0.000000
    6          6             0        1.062248    0.233074    0.000000
    7          1             0        2.088854    0.557455    0.000000
 ---------------------------------------------------------------------

 SCF Done:  E(RB+HF-PW91) =  -258.246013897     A.U. after    1 cycles

  The electronic state is 1-A'.
 Alpha  occ. eigenvalues --  -14.42733 -14.39143 -14.37454 -14.34546 -10.25706
 Alpha  occ. eigenvalues --   -1.16224  -0.96138  -0.90734  -0.69178  -0.67837
 Alpha  occ. eigenvalues --   -0.60835  -0.51275  -0.50892  -0.39082  -0.34459
 Alpha  occ. eigenvalues --   -0.32163  -0.31355  -0.29950
 Alpha virt. eigenvalues --   -0.02932   0.00604   0.02337   0.06778   0.14913
 Alpha virt. eigenvalues --    0.16635   0.17432   0.24458   0.27966   0.29058
 Alpha virt. eigenvalues --    0.36431   0.36855   0.39342   0.41667   0.42729

  Exact polarizability:  41.234   0.827  40.500  -0.001   0.001  20.831
 Approx polarizability:  69.602   0.550  72.904   0.000   0.000  32.034

                     1                      2                      3
                    A"                     A"                     A"
 Frequencies --   600.7835               698.1979               751.0909
 Red. masses --     1.6822                 2.0196                 8.3092
 Frc consts  --     0.3577                 0.5800                 2.7618
 IR Inten    --    78.5626                 6.1433                 8.2007
 Raman Activ --     0.0000                 0.0000                 0.0000

                     4                      5                      6
                    A"                     A'                     A'
 Frequencies --   870.5418               981.6847              1019.3835
 Red. masses --     1.3925                 4.4432                 5.9618
 Frc consts  --     0.6218                 2.5229                 3.6501
 IR Inten    --    17.6172                 4.0193                 0.6180
 Raman Activ --     0.0000                 0.0000                 0.0000

                     7                      8                      9
                    A'                     A'                     A'
 Frequencies --  1063.0351              1077.7529              1152.0405
 Red. masses --     4.5038                 3.3916                 2.0348
 Frc consts  --     2.9986                 2.3211                 1.5911
 IR Inten    --    16.7155                28.6070                15.0174
 Raman Activ --     0.0000                 0.0000                 0.0000

                    10                     11                     12
                    A'                     A'                     A'
 Frequencies --  1273.0418              1311.4351              1467.0578
 Red. masses --     2.3702                10.8605                 3.2519
 Frc consts  --     2.2632                11.0051                 4.1236
 IR Inten    --     2.4901                12.7705                 8.2412
 Raman Activ --     0.0000                 0.0000                 0.0000

                    13                     14                     15
                    A'                     A'                     A'
 Frequencies --  1516.8320              3282.9691              3666.0689
 Red. masses --     3.4375                 1.1012                 1.0836
 Frc consts  --     4.6597                 6.9927                 8.5810
 IR Inten    --    15.8073                 1.2318                89.8340
 Raman Activ --     0.0000                 0.0000                 0.0000

 - Thermochemistry -
 -------------------
 Temperature   298.150 Kelvin.  Pressure   1.00000 Atm.
 Atom  1 has atomic number  7 and mass  14.00307

 Molecular mass:    70.02795 amu.
 Principal axes and moments of inertia in atomic units:
                           1         2         3
     EIGENVALUES --   169.55901 172.30623 341.86524
           X            0.85956   0.51103   0.00000
           Y           -0.51103   0.85956   0.00000
           Z            0.00000   0.00000   1.00000
 THIS MOLECULE IS AN ASYMMETRIC TOP.
 ROTATIONAL SYMMETRY NUMBER  1.
 ROTATIONAL TEMPERATURES (KELVIN)      0.51082     0.50267     0.25336
 ROTATIONAL CONSTANTS (GHZ)           10.64374    10.47403     5.27910
 Zero-point vibrational energy     124004.4 (Joules/Mol)
                                   29.63776 (Kcal/Mol)
 WARNING-- EXPLICIT CONSIDERATION OF   1 DEGREES OF FREEDOM AS
           VIBRATIONS MAY CAUSE SIGNIFICANT ERROR
 VIBRATIONAL TEMPERATURES:    864.39  1004.55  1080.65  1252.51  1412.42
          (KELVIN)           1466.66  1529.46  1550.64  1657.52  1831.61
                             1886.85  2110.76  2182.37  4723.43  5274.63

 Zero-point correction=                           0.047231 (Hartree/Particle)
 Thermal correction to Energy=                    0.050674
 Thermal correction to Enthalpy=                  0.051618
 Thermal correction to Gibbs Free Energy=         0.021163
 Sum of electronic and zero-point Energies=           -258.198783
 Sum of electronic and thermal Energies=              -258.195340
 Sum of electronic and thermal Enthalpies=            -258.194396
 Sum of electronic and thermal Free Energies=         -258.224850

                     E (Thermal)             CV                S
                      KCAL/MOL        CAL/MOL-KELVIN    CAL/MOL-KELVIN
 TOTAL                   31.798             11.165             64.097
 ELECTRONIC               0.000              0.000              0.000
 TRANSLATIONAL            0.889              2.981             38.656
 ROTATIONAL               0.889              2.981             23.817
 VIBRATIONAL             30.021              5.203              1.624
 VIBRATION  1             0.959              1.030              0.448
                       Q            LOG10(Q)             LN(Q)
 TOTAL BOT       0.184321D-09         -9.734425        -22.414343
 TOTAL V=0       0.977418D+12         11.990080         27.608180
 VIB (BOT)       0.223676D-21        -21.650381        -49.851844
 VIB (BOT)  1    0.248343D+00         -0.604948         -1.392943
 VIB (V=0)       0.118611D+01          0.074125          0.170679
 VIB (V=0)  1    0.105828D+01          0.024600          0.056643
 ELECTRONIC      0.100000D+01          0.000000          0.000000
 TRANSLATIONAL   0.230339D+08          7.362368         16.952478
 ROTATIONAL      0.357757D+05          4.553588         10.485023
 ***** Axes restored to original set *****
 -------------------------------------------------------------------
 Center     Atomic                   Forces (Hartrees/Bohr)
 Number     Number              X              Y              Z
 -------------------------------------------------------------------
    1          7           0.000093845   -0.000093375    0.000000000
    2          7           0.000095774   -0.000051334    0.000000000
    3          7          -0.000029410    0.000243348    0.000000000
    4          1           0.000032774    0.000030595    0.000000000
    5          7          -0.000232114   -0.000062570    0.000000000
    6          6           0.000054510   -0.000061179    0.000000000
    7          1          -0.000015379   -0.000005484    0.000000000
 -------------------------------------------------------------------
 Cartesian Forces:  Max     0.000243348 RMS     0.000086244

 GradGradGradGradGradGradGradGradGradGradGradGradGradGradGradGradGradGrad
 Berny optimization.
 Internal  Forces:  Max     0.000158752 RMS     0.000064580
 Search for a local minimum.
 Step number   1 out of a maximum of  36
 All quantities printed in internal units (Hartrees-Bohrs-Radians)
 Second derivative matrix not updated -- analytic derivatives used.
     Eigenvalues ---    0.00864   0.02552   0.07394   0.07982   0.10054
     Eigenvalues ---    0.10470   0.19997   0.25014   0.35114   0.37632
     Eigenvalues ---    0.43862   0.47314   0.48401   0.58418   0.63932
     Eigenvalues --- 1000.000001000.000001000.000001000.000001000.00000
     Eigenvalues --- 1000.000001000.000001000.000001000.000001000.00000
     Eigenvalues --- 1000.00000
 Angle between quadratic step and forces=  14.95 degrees.
 Linear search not attempted -- first point.
 Iteration  1 RMS(Cart)=  0.00014250 RMS(Int)=  0.00000001
 Iteration  2 RMS(Cart)=  0.00000001 RMS(Int)=  0.00000001
 Variable       Old X    -DE/DX   Delta X   Delta X   Delta X     New X
                                 (Linear)    (Quad)   (Total)
    R1        2.42261   0.00005   0.00000   0.00010   0.00010   2.42270
    R2        2.55893  -0.00013   0.00000  -0.00041  -0.00041   2.55852
    R3        2.53201  -0.00007   0.00000  -0.00017  -0.00017   2.53184
    R4        1.90109   0.00004   0.00000   0.00008   0.00008   1.90117
    R5        2.53031   0.00016   0.00000   0.00034   0.00034   2.53066
    R6        2.47263   0.00015   0.00000   0.00026   0.00026   2.47289
    R7        2.03454  -0.00001   0.00000  -0.00003  -0.00003   2.03451
    A1        1.94313   0.00005   0.00000   0.00011   0.00011   1.94324
    A2        1.85139   0.00008   0.00000   0.00015   0.00015   1.85154
    A3        2.10396   0.00006   0.00000   0.00013   0.00013   2.10408
    A4        1.89549  -0.00011   0.00000  -0.00023  -0.00023   1.89526
    A5        2.28374   0.00006   0.00000   0.00010   0.00010   2.28384
    A6        1.84477  -0.00006   0.00000  -0.00006  -0.00006   1.84472
    A7        1.88999   0.00004   0.00000   0.00003   0.00003   1.89002
    A8        2.18100  -0.00002   0.00000  -0.00002  -0.00002   2.18098
    A9        2.21219  -0.00002   0.00000  -0.00001  -0.00001   2.21219
    D1        0.00000   0.00000   0.00000   0.00000   0.00000   0.00000
    D2        0.00000   0.00000   0.00000   0.00000   0.00000   0.00000
    D3        3.14159   0.00000   0.00000   0.00000   0.00000   3.14159
    D4        0.00000   0.00000   0.00000   0.00000   0.00000   0.00000
    D5        0.00000   0.00000   0.00000   0.00000   0.00000   0.00000
    D6        3.14159   0.00000   0.00000   0.00000   0.00000   3.14159
    D7        3.14159   0.00000   0.00000   0.00000   0.00000   3.14159
    D8        0.00000   0.00000   0.00000   0.00000   0.00000   0.00000
    D9        0.00000   0.00000   0.00000   0.00000   0.00000   0.00000
   D10        3.14159   0.00000   0.00000   0.00000   0.00000   3.14159
         Item               Value     Threshold  Converged?
 Maximum Force            0.000159     0.000450     YES
 RMS     Force            0.000065     0.000300     YES
 Maximum Displacement     0.000403     0.001800     YES
 RMS     Displacement     0.000142     0.001200     YES
 Predicted change in Energy=-1.142511D-07
 Optimization completed.
    -- Stationary point found.
                         ----------------------------
                         !   Optimized Parameters   !
                         ! (Angstroms and Degrees)  !
 ------------------------                            -------------------------
 ! Name  Definition              Value          Derivative Info.             !
 -----------------------------------------------------------------------------
 ! R1    R(1,2)                  1.282          -DE/DX =    0.0001           !
 ! R2    R(1,5)                  1.3541         -DE/DX =   -0.0001           !
 ! R3    R(2,3)                  1.3399         -DE/DX =   -0.0001           !
 ! R4    R(3,4)                  1.006          -DE/DX =    0.               !
 ! R5    R(3,6)                  1.339          -DE/DX =    0.0002           !
 ! R6    R(5,6)                  1.3085         -DE/DX =    0.0001           !
 ! R7    R(6,7)                  1.0766         -DE/DX =    0.               !
 ! A1    A(2,1,5)              111.3333         -DE/DX =    0.0001           !
 ! A2    A(1,2,3)              106.0767         -DE/DX =    0.0001           !
 ! A3    A(2,3,4)              120.5478         -DE/DX =    0.0001           !
 ! A4    A(2,3,6)              108.6036         -DE/DX =   -0.0001           !
 ! A5    A(4,3,6)              130.8486         -DE/DX =    0.0001           !
 ! A6    A(1,5,6)              105.6978         -DE/DX =   -0.0001           !
 ! A7    A(3,6,5)              108.2887         -DE/DX =    0.               !
 ! A8    A(3,6,7)              124.962          -DE/DX =    0.               !
 ! A9    A(5,6,7)              126.7494         -DE/DX =    0.               !
 ! D1    D(5,1,2,3)              0.             -DE/DX =    0.               !
 ! D2    D(2,1,5,6)              0.             -DE/DX =    0.               !
 ! D3    D(1,2,3,4)            180.             -DE/DX =    0.               !
 ! D4    D(1,2,3,6)              0.             -DE/DX =    0.               !
 ! D5    D(2,3,6,5)              0.             -DE/DX =    0.               !
 ! D6    D(2,3,6,7)            180.             -DE/DX =    0.               !
 ! D7    D(4,3,6,5)            180.             -DE/DX =    0.               !
 ! D8    D(4,3,6,7)              0.             -DE/DX =    0.               !
 ! D9    D(1,5,6,3)              0.             -DE/DX =    0.               !
 ! D10   D(1,5,6,7)            180.             -DE/DX =    0.               !
 -----------------------------------------------------------------------------
 GradGradGradGradGradGradGradGradGradGradGradGradGradGradGradGradGradGrad

 1\1\ NATIONAL INSTITUTE OF STANDARDS AND TECHNOLOGY-NEVA\Freq\RB3PW91\
 CC-pVTZ\C1H2N4\RDJ3\08-May-2001\0\\#N GEOM=ALLCHECK GUESS=TCHECK RB3PW
 91/CC-PVTZ FREQ\\1H tetrazole c CH-NH-N=N-N= casno=288948\\0,1\N,-1.13
 75066211,-0.2641582211,0.\N,-0.6770902984,0.9323000056,0.\N,0.65775469
 7,0.8162014401,0.\H,1.2422144155,1.6350211787,0.\N,-0.1372375941,-1.17
 69154135,0.\C,0.9733504089,-0.4850593056,0.\H,1.9762418469,-0.87666002
 21,0.\\Version=SGI64-G98RevA.7\State=1-A'\HF=-258.2460139\RMSD=6.031e-
 09\RMSF=8.624e-05\Dipole=1.911615,0.8360485,0.\DipoleDeriv=-0.0476369,
 -0.1505875,0.0000306,-0.18736,0.0906922,-0.0001164,-0.000029,0.000146,
 -0.1489711,0.2486841,0.261794,-0.000042,0.1963791,-0.3343715,0.0000355
 ,0.0000154,-0.0000816,-0.1042906,-0.3332391,-0.280946,0.0001261,-0.213
 2683,-0.2076027,0.000068,0.0000029,-0.0001025,-0.106086,0.2112707,0.04
 75522,-0.0000505,0.028492,0.2594942,-0.0000711,0.0000041,0.000062,0.32
 21459,-0.3409542,0.1286559,-0.0001095,0.0233943,-0.3435873,0.0000404,-
 0.0000053,0.0000086,-0.2102308,0.2092559,-0.0125747,0.0000327,0.142494
 9,0.4197428,0.0000513,0.0000145,-0.0000311,0.0755556,0.0526193,0.00610
 65,0.0000127,0.0098684,0.115632,-0.0000077,-0.0000026,-0.0000015,0.171
 8771\Polar=41.752319,-0.1828603,39.9810574,0.0000687,0.0015061,20.8313
 616\PG=CS [SG(C1H2N4)]\NImag=0\\0.56012517,0.09586166,0.48441479,0.000
 00261,0.00000504,0.12832791,-0.14065196,-0.11089638,0.00000662,0.43584
 865,-0.05321870,-0.32281243,-0.00000278,-0.03511910,0.61538165,-0.0000
 0069,-0.00000292,-0.10018206,-0.00000218,0.00000082,0.11895691,-0.1166
 0103,-0.11308000,-0.00001369,-0.21660651,0.02463440,0.00000559,0.66157
 712,-0.03313302,-0.06449663,-0.00000174,0.05945863,-0.11862264,0.00000
 136,0.20052567,0.92879103,-0.00000101,-0.00000501,0.02765500,-0.000004
 73,0.00000288,-0.07166631,0.00000942,0.00000286,0.09737377,-0.01076903
 ,-0.00117491,0.00000308,-0.00669762,-0.03220799,-0.00000177,-0.1961367
 9,-0.18022754,-0.00000202,0.19931858,0.00756286,0.00178513,0.00000338,
 0.00167308,0.01123197,-0.00000196,-0.18692928,-0.33891180,-0.00000258,
 0.19814868,0.33569799,-0.00000048,0.00000310,0.00805028,0.00000124,-0.
 00000102,-0.01198694,-0.00000350,-0.00000240,-0.00784152,0.00000126,0.
 00000171,0.01419601,-0.16534341,0.06139571,0.00000419,-0.00162540,0.09
 103378,-0.00000295,-0.00447725,-0.11414154,-0.00000472,-0.00020198,-0.
 00086956,0.00000316,0.48867988,0.02387518,-0.12835200,-0.00000031,-0.0
 1683873,-0.12663810,0.00000057,0.00248827,-0.08331920,-0.00000006,0.00
 886056,-0.00599758,-0.00000034,0.10465644,0.53352453,0.00000160,0.0000
 0052,-0.09271131,0.00000137,-0.00000063,0.03669247,-0.00000263,0.00000
 069,0.02243689,0.00000037,0.00000021,0.00726761,0.00000124,0.00000032,
 0.11276597,-0.12373359,0.06829970,-0.00000411,-0.07018323,0.00858735,0
 .00000206,-0.13255275,0.07046734,0.00000306,0.01486983,-0.02010070,-0.
 00000107,-0.30176055,-0.13358415,-0.00000227,0.93303308,-0.03460633,0.
 03073707,-0.00000453,0.10228405,-0.05238581,0.00000291,0.04081077,-0.3
 1877480,0.00000271,0.00678731,-0.00357097,-0.00000150,-0.12573366,-0.2
 0390145,-0.00000186,-0.09705497,0.64546787,-0.00000190,-0.00000091,0.0
 1984652,-0.00000246,0.00000080,0.02203791,0.00000472,-0.00000111,-0.06
 588365,-0.00000078,-0.00000062,-0.00870190,-0.00000098,-0.00000008,-0.
 08170585,0.00000261,0.00000229,0.14523403,-0.00302609,-0.00040578,0.00
 000130,-0.00008390,-0.00370980,-0.00000007,0.00479716,-0.00294923,0.,-
 0.00038300,0.00051490,-0.00000061,-0.01527150,0.01054226,0.00000033,-0
 .31967268,0.10751280,-0.00000121,0.33364008,-0.00634161,-0.00127592,0.
 00000094,-0.00056153,-0.00615464,-0.00000078,0.03155018,-0.00466610,-0
 .00000080,-0.00018613,-0.00023473,0.00000046,-0.01634117,0.01468381,0.
 00000075,0.10338530,-0.09757176,-0.00000037,-0.11150508,0.09521931,-0.
 00000015,0.00000021,0.00901365,0.00000013,-0.00000006,0.00614802,0.000
 00011,0.00000034,-0.00207420,-0.00000015,-0.00000015,-0.00098353,0.000
 00009,-0.00000012,-0.00474577,-0.00000028,-0.00000001,-0.03082706,0.00
 000026,-0.00000020,0.02346890\\-0.00009385,0.00009338,0.,-0.00009577,0
 .00005133,0.,0.00002941,-0.00024335,0.,-0.00003277,-0.00003059,0.,0.00
 023211,0.00006257,0.,-0.00005451,0.00006118,0.,0.00001538,0.00000548,0
 .\\\@

 WE'RE IN THE POSITION OF A VISITOR FROM ANOTHER
 DIMENSION WHO COMES TO EARTH AND SEES A CHESS MATCH.
 ASSUMING HE KNOWS IT'S A GAME, HE'S GOT TWO PROBLEMS:
 FIRST, FIGURE OUT THE RULES, AND SECOND, FIGURE OUT HOW TO WIN.
 NINETY PERCENT OF SCIENCE (INCLUDING VIRTUALLY ALL OF CHEMISRY)
 IS IN THAT SECOND CATEGORY.  THEY'RE TRYING TO APPLY
 THE LAWS THAT ARE ALREADY KNOWN.

                     -- SHELDON GLASHOW, 1979
 Job cpu time:  0 days  2 hours 14 minutes 58.1 seconds.
 File lengths (MBytes):  RWF=   31 Int=    0 D2E=    0 Chk=    6 Scr=    1
 Normal termination of Gaussian 98.
