 Gaussian 98, Revision A.4,
 Gaussian 98:  x86-Linux-G98RevA.4 11-Sep-1998

 -----------------------
 #B3PW91/6-31G* OPT FREQ
 -----------------------

 ----------------------------------------
 1H tetrazole c CH-NH-N=N-N= casno=288948
 ----------------------------------------
 Symbolic Z-matrix:
 Charge =  0 Multiplicity = 1

 SCF Done:  E(RB+HF-PW91) =  -258.151132528     A.U. after   15 cycles
 SCF Done:  E(RB+HF-PW91) =  -258.154492170     A.U. after   13 cycles
 SCF Done:  E(RB+HF-PW91) =  -258.154555040     A.U. after   10 cycles
 SCF Done:  E(RB+HF-PW91) =  -258.154565155     A.U. after   10 cycles
 SCF Done:  E(RB+HF-PW91) =  -258.154568306     A.U. after    9 cycles
 SCF Done:  E(RB+HF-PW91) =  -258.154569028     A.U. after    8 cycles
 Optimization completed.
    -- Stationary point found.
 Normal termination of Gaussian 98.

 ---------------------------------------------------
 #N Geom=AllCheck Guess=TCheck RB3PW91/6-31G(d) Freq
 ---------------------------------------------------

 1H tetrazole c CH-NH-N=N-N= casno=288948
 ----------------------------------------
 Redundant internal coordinates taken from checkpointfile:
 /wrk/rdj3/Gau-8981.chk
 Charge =  0 Multiplicity = 1

                         Standard orientation:
 ---------------------------------------------------------------------
 Center     Atomic     Atomic              Coordinates (Angstroms)
 Number     Number      Type              X           Y           Z
 ---------------------------------------------------------------------
    1          7             0       -0.720730   -0.923583    0.000000
    2          7             0       -1.117672    0.303105    0.000000
    3          7             0        0.000000    1.051341    0.000000
    4          1             0       -0.062417    2.059485    0.000000
    5          7             0        0.633806   -1.006178    0.000000
    6          6             0        1.066455    0.234515    0.000000
    7          1             0        2.095856    0.560633    0.000000
 ---------------------------------------------------------------------

 SCF Done:  E(RB+HF-PW91) =  -258.154569028     A.U. after    1 cycles

  The electronic state is 1-A'.
 Alpha  occ. eigenvalues --  -14.44440 -14.40544 -14.38751 -14.35900 -10.26991
 Alpha  occ. eigenvalues --   -1.15773  -0.95883  -0.90408  -0.69010  -0.67447
 Alpha  occ. eigenvalues --   -0.60534  -0.50683  -0.50584  -0.38555  -0.33924
 Alpha  occ. eigenvalues --   -0.31634  -0.30925  -0.29407
 Alpha virt. eigenvalues --   -0.02399   0.01362   0.06256   0.11173   0.18341
 Alpha virt. eigenvalues --    0.20063   0.28169   0.32481   0.41319   0.51640
 Alpha virt. eigenvalues --    0.52423   0.59464   0.60455   0.64622   0.66775

  Exact polarizability:  37.729   0.946  36.858   0.010   0.018  15.636
 Approx polarizability:  65.376   0.229  69.052   0.000   0.000  23.942

                     1                      2                      3
                    A"                     A"                     A"
 Frequencies --   589.6469               696.7742               744.9426
 Red. masses --     1.7839                 1.9729                 8.1199
 Frc consts  --     0.3654                 0.5643                 2.6549
 IR Inten    --    92.5459                 9.9938                 8.6137
 Raman Activ --     0.0000                 0.0000                 0.0000

                     4                      5                      6
                    A"                     A'                     A'
 Frequencies --   850.4563               984.9901              1019.8486
 Red. masses --     1.3558                 4.4705                 5.7774
 Frc consts  --     0.5778                 2.5555                 3.5404
 IR Inten    --    19.0044                 3.6367                 1.1201
 Raman Activ --     0.0000                 0.0000                 0.0000

                     7                      8                      9
                    A'                     A'                     A'
 Frequencies --  1079.0175              1094.3236              1160.4432
 Red. masses --     3.5875                 4.7045                 1.8803
 Frc consts  --     2.4610                 3.3194                 1.4918
 IR Inten    --    23.3649                24.5207                12.8288
 Raman Activ --     0.0000                 0.0000                 0.0000

                    10                     11                     12
                    A'                     A'                     A'
 Frequencies --  1283.9657              1318.6300              1482.7710
 Red. masses --     2.4583                10.8779                 3.3873
 Frc consts  --     2.3878                11.1440                 4.3879
 IR Inten    --     2.3653                15.8545                 8.7251
 Raman Activ --     0.0000                 0.0000                 0.0000

                    13                     14                     15
                    A'                     A'                     A'
 Frequencies --  1527.9314              3319.2507              3674.3247
 Red. masses --     3.3400                 1.1007                 1.0837
 Frc consts  --     4.5942                 7.1451                 8.6202
 IR Inten    --    18.3652                 0.5860                84.9971
 Raman Activ --     0.0000                 0.0000                 0.0000

 - Thermochemistry -
 -------------------
 Temperature   298.150 Kelvin.  Pressure   1.00000 Atm.
 Atom  1 has atomic number  7 and mass  14.00307

 Molecular mass:    70.02795 amu.
 Principal axes and moments of inertia in atomic units:
                           1         2         3
     EIGENVALUES --   170.73432 173.70396 344.43829
           X            0.85056   0.52587   0.00000
           Y           -0.52587   0.85056   0.00000
           Z            0.00000   0.00000   1.00000
 THIS MOLECULE IS AN ASYMMETRIC TOP.
 ROTATIONAL SYMMETRY NUMBER  1.
 ROTATIONAL TEMPERATURES (KELVIN)      0.50730     0.49863     0.25146
 ROTATIONAL CONSTANTS (GHZ)           10.57046    10.38975     5.23966
 Zero-point vibrational energy     124575.0 (Joules/Mol)
                                   29.77415 (Kcal/Mol)
 WARNING-- EXPLICIT CONSIDERATION OF   1 DEGREES OF FREEDOM AS
           VIBRATIONS MAY CAUSE SIGNIFICANT ERROR
 VIBRATIONAL TEMPERATURES:    848.37  1002.50  1071.80  1223.61  1417.17
          (KELVIN)           1467.33  1552.46  1574.48  1669.61  1847.33
                             1897.20  2133.36  2198.34  4775.63  5286.50

 Zero-point correction=                           0.047448 (Hartree/Particle)
 Thermal correction to Energy=                    0.050899
 Thermal correction to Enthalpy=                  0.051843
 Thermal correction to Gibbs Free Energy=         0.021366
 Sum of electronic and zero-point Energies=           -258.107121
 Sum of electronic and thermal Energies=              -258.103670
 Sum of electronic and thermal Enthalpies=            -258.102726
 Sum of electronic and thermal Free Energies=         -258.133203

                     E (Thermal)             CV                S
                      KCAL/MOL        CAL/MOL-KELVIN    CAL/MOL-KELVIN
 TOTAL                   31.939             11.176             64.144
 ELECTRONIC               0.000              0.000              0.000
 TRANSLATIONAL            0.889              2.981             38.656
 ROTATIONAL               0.889              2.981             23.839
 VIBRATIONAL             30.162              5.214              1.648
 VIBRATION  1             0.947              1.054              0.468
                       Q            LOG10(Q)             LN(Q)
 TOTAL BOT       0.148730D-09         -9.827601        -22.628888
 TOTAL V=0       0.992825D+12         11.996873         27.623820
 VIB (BOT)       0.178468D-21        -21.748439        -50.077631
 VIB (BOT)  1    0.255930D+00         -0.591878         -1.362850
 VIB (V=0)       0.119134D+01          0.076035          0.175077
 VIB (V=0)  1    0.106169D+01          0.025999          0.059866
 ELECTRONIC      0.100000D+01          0.000000          0.000000
 TRANSLATIONAL   0.230339D+08          7.362368         16.952478
 ROTATIONAL      0.361801D+05          4.558470         10.496266
 ***** Axes restored to original set *****
 -------------------------------------------------------------------
 Center     Atomic                   Forces (Hartrees/Bohr)
 Number     Number              X              Y              Z
 -------------------------------------------------------------------
    1          7           0.000181975   -0.000095555    0.000000000
    2          7          -0.000021400   -0.000109649    0.000000000
    3          7           0.000109754    0.000275691    0.000000000
    4          1           0.000042219    0.000009435    0.000000000
    5          7          -0.000222691    0.000004086    0.000000000
    6          6          -0.000071017   -0.000092133    0.000000000
    7          1          -0.000018840    0.000008125    0.000000000
 -------------------------------------------------------------------
 Cartesian Forces:  Max     0.000275691 RMS     0.000099573

 GradGradGradGradGradGradGradGradGradGradGradGradGradGradGradGradGradGrad
 Berny optimization.
 Internal  Forces:  Max     0.000221828 RMS     0.000074537
 Search for a local minimum.
 Step number   1 out of a maximum of  36
 All quantities printed in internal units (Hartrees-Bohrs-Radians)
 Second derivative matrix not updated -- analytic derivatives used.
     Eigenvalues ---    0.00833   0.02511   0.07273   0.07907   0.10302
     Eigenvalues ---    0.10682   0.20755   0.25933   0.35872   0.38457
     Eigenvalues ---    0.44515   0.47611   0.48864   0.58986   0.64213
     Eigenvalues --- 1000.000001000.000001000.000001000.000001000.00000
     Eigenvalues --- 1000.000001000.000001000.000001000.000001000.00000
     Eigenvalues --- 1000.00000
 Angle between quadratic step and forces=  11.85 degrees.
 Linear search not attempted -- first point.
 Iteration  1 RMS(Cart)=  0.00015986 RMS(Int)=  0.00000002
 Iteration  2 RMS(Cart)=  0.00000001 RMS(Int)=  0.00000001
 Variable       Old X    -DE/DX   Delta X   Delta X   Delta X     New X
                                 (Linear)    (Quad)   (Total)
    R1        2.43645  -0.00004   0.00000  -0.00016  -0.00016   2.43629
    R2        2.56446  -0.00010   0.00000  -0.00020  -0.00020   2.56426
    R3        2.54170  -0.00011   0.00000  -0.00020  -0.00020   2.54150
    R4        1.90876   0.00004   0.00000   0.00008   0.00008   1.90884
    R5        2.53852   0.00022   0.00000   0.00047   0.00047   2.53899
    R6        2.48303   0.00009   0.00000   0.00013   0.00013   2.48317
    R7        2.04057  -0.00002   0.00000  -0.00004  -0.00004   2.04053
    A1        1.94465   0.00015   0.00000   0.00026   0.00026   1.94491
    A2        1.84778   0.00003   0.00000   0.00013   0.00013   1.84791
    A3        2.09890   0.00005   0.00000   0.00017   0.00017   2.09907
    A4        1.89804  -0.00010   0.00000  -0.00027  -0.00027   1.89777
    A5        2.28625   0.00006   0.00000   0.00010   0.00010   2.28634
    A6        1.84543  -0.00013   0.00000  -0.00024  -0.00024   1.84518
    A7        1.88888   0.00006   0.00000   0.00012   0.00012   1.88900
    A8        2.18118  -0.00002   0.00000  -0.00007  -0.00007   2.18111
    A9        2.21313  -0.00003   0.00000  -0.00005  -0.00005   2.21307
    D1        0.00000   0.00000   0.00000   0.00000   0.00000   0.00000
    D2        0.00000   0.00000   0.00000   0.00000   0.00000   0.00000
    D3        3.14159   0.00000   0.00000   0.00000   0.00000   3.14159
    D4        0.00000   0.00000   0.00000   0.00000   0.00000   0.00000
    D5        0.00000   0.00000   0.00000   0.00000   0.00000   0.00000
    D6        3.14159   0.00000   0.00000   0.00000   0.00000   3.14159
    D7        3.14159   0.00000   0.00000   0.00000   0.00000   3.14159
    D8        0.00000   0.00000   0.00000   0.00000   0.00000   0.00000
    D9        0.00000   0.00000   0.00000   0.00000   0.00000   0.00000
   D10        3.14159   0.00000   0.00000   0.00000   0.00000   3.14159
         Item               Value     Threshold  Converged?
 Maximum Force            0.000222     0.000450     YES
 RMS     Force            0.000075     0.000300     YES
 Maximum Displacement     0.000328     0.001800     YES
 RMS     Displacement     0.000160     0.001200     YES
 Predicted change in Energy=-1.469929D-07
 Optimization completed.
    -- Stationary point found.
                         ----------------------------
                         !   Optimized Parameters   !
                         ! (Angstroms and Degrees)  !
 ------------------------                            -------------------------
 ! Name  Definition              Value          Derivative Info.             !
 -----------------------------------------------------------------------------
 ! R1    R(1,2)                  1.2893         -DE/DX =    0.               !
 ! R2    R(1,5)                  1.3571         -DE/DX =   -0.0001           !
 ! R3    R(2,3)                  1.345          -DE/DX =   -0.0001           !
 ! R4    R(3,4)                  1.0101         -DE/DX =    0.               !
 ! R5    R(3,6)                  1.3433         -DE/DX =    0.0002           !
 ! R6    R(5,6)                  1.314          -DE/DX =    0.0001           !
 ! R7    R(6,7)                  1.0798         -DE/DX =    0.               !
 ! A1    A(2,1,5)              111.4203         -DE/DX =    0.0001           !
 ! A2    A(1,2,3)              105.8697         -DE/DX =    0.               !
 ! A3    A(2,3,4)              120.2579         -DE/DX =    0.               !
 ! A4    A(2,3,6)              108.7499         -DE/DX =   -0.0001           !
 ! A5    A(4,3,6)              130.9922         -DE/DX =    0.0001           !
 ! A6    A(1,5,6)              105.7351         -DE/DX =   -0.0001           !
 ! A7    A(3,6,5)              108.225          -DE/DX =    0.0001           !
 ! A8    A(3,6,7)              124.9722         -DE/DX =    0.               !
 ! A9    A(5,6,7)              126.8028         -DE/DX =    0.               !
 ! D1    D(5,1,2,3)              0.             -DE/DX =    0.               !
 ! D2    D(2,1,5,6)              0.             -DE/DX =    0.               !
 ! D3    D(1,2,3,4)            180.             -DE/DX =    0.               !
 ! D4    D(1,2,3,6)              0.             -DE/DX =    0.               !
 ! D5    D(2,3,6,5)              0.             -DE/DX =    0.               !
 ! D6    D(2,3,6,7)            180.             -DE/DX =    0.               !
 ! D7    D(4,3,6,5)            180.             -DE/DX =    0.               !
 ! D8    D(4,3,6,7)              0.             -DE/DX =    0.               !
 ! D9    D(1,5,6,3)              0.             -DE/DX =    0.               !
 ! D10   D(1,5,6,7)            180.             -DE/DX =    0.               !
 -----------------------------------------------------------------------------
 GradGradGradGradGradGradGradGradGradGradGradGradGradGradGradGradGradGrad

 1\1\GINC-QCHEM5\Freq\RB3PW91\6-31G(d)\C1H2N4\RDJ3\23-Feb-1999\0\\#N GE
 OM=ALLCHECK GUESS=TCHECK RB3PW91/6-31G(D) FREQ\\1H tetrazole c CH-NH-N
 =N-N= casno=288948\\0,1\N,-1.0560732067,0.5071164959,0.\N,0.0577008977
 ,1.1566044379,0.\N,1.0271402842,0.2242772817,0.\H,1.9987637502,0.50031
 95766,0.\N,-0.8478106804,-0.8338597444,0.\C,0.4566181809,-0.9918788868
 ,0.\H,0.9948261016,-1.9280155533,0.\\Version=x86-Linux-G98RevA.4\State
 =1-A'\HF=-258.154569\RMSD=4.549e-09\RMSF=9.957e-05\Dipole=2.0476259,-0
 .5632025,0.\DipoleDeriv=-0.1673146,0.0594403,0.0000732,0.0075011,0.203
 1368,-0.0000402,0.0010707,-0.0004418,-0.1557704,0.2611566,-0.2091509,-
 0.0001446,-0.2473998,-0.3382924,-0.0001077,-0.0004347,0.0002051,-0.096
 0588,-0.5197003,-0.0302934,-0.0001594,0.0591541,-0.0315806,0.000037,0.
 0006595,-0.0001526,-0.1634755,0.2619283,0.0301148,0.0000847,0.0187684,
 0.2150433,0.0000479,-0.0001035,0.0000551,0.3540041,-0.2807975,0.081804
 6,0.0001839,-0.0555652,-0.4046739,0.0002562,-0.0014419,0.0004045,-0.20
 52193,0.3594775,0.0284597,-0.000024,0.1822191,0.2800265,-0.0002121,0.0
 002616,-0.0001789,0.1001884,0.0852504,0.0396247,-0.0000138,0.0353223,0
 .0763406,0.0000189,-0.0000117,0.0001086,0.1663315\Polar=37.2918362,-1.
 0412757,37.2955511,0.0192941,-0.0058554,15.6363328\PG=CS [SG(C1H2N4)]\
 NImag=0\\0.62505765,-0.01235423,0.43630601,-0.00004534,0.00002043,0.12
 637938,-0.29693162,-0.14165089,0.00003999,0.48461039,-0.08010625,-0.17
 375221,0.00002854,0.07805707,0.58376005,0.00001881,-0.00000769,-0.0983
 1398,-0.00001644,-0.00001203,0.11655627,-0.16445370,-0.02980592,0.0000
 0697,-0.14433544,0.04480145,-0.00000349,0.96863690,0.04885252,-0.01416
 554,-0.00000662,0.07991076,-0.20522813,0.00000209,0.17348751,0.6466526
 0,-0.00001198,0.00000736,0.02691592,0.00001324,0.00000860,-0.06946131,
 0.00000069,-0.00000211,0.09293942,-0.00328248,0.00208008,-0.00000834,-
 0.01412493,-0.01188929,0.00000353,-0.43241585,-0.10684608,-0.00000153,
 0.44761721,0.01168524,-0.00645080,-0.00000376,0.02300389,0.01965424,0.
 00000158,-0.11432503,-0.10587700,-0.00000111,0.11076238,0.09098106,-0.
 00001179,0.00000729,0.00803424,0.00000968,0.00000531,-0.01224154,-0.00
 000588,-0.00000088,-0.00712332,0.00000155,0.00000068,0.01407841,-0.109
 07046,0.05044950,-0.00002542,-0.01581823,0.00176851,0.00001035,-0.0883
 5811,-0.10835415,-0.00001069,0.00106266,-0.00723416,-0.00000414,0.6166
 7635,0.00968004,-0.19731086,-0.00004556,-0.10575666,-0.11270183,0.0000
 1856,0.00803099,0.00290046,-0.00001764,0.00314764,-0.00786886,-0.00000
 977,0.03836402,0.42501268,0.00007366,-0.00003983,-0.09142012,-0.000066
 66,-0.00004372,0.03612388,0.00000516,0.00000939,0.02100124,0.00000517,
 0.00000287,0.00762272,0.00004253,0.00007680,0.11080575,-0.04564309,0.1
 2786306,0.00002830,-0.00861727,-0.02760106,-0.00001090,-0.15410153,-0.
 06795542,0.00001056,0.00123420,-0.02427204,0.00001057,-0.39811455,0.01
 911991,-0.00005729,0.73684213,0.02537269,-0.04543155,0.00001287,0.0679
 6324,-0.10989419,-0.00000550,-0.09803625,-0.30935387,0.00000475,0.0032
 0298,0.01024368,-0.00000252,0.02450927,-0.11639070,-0.00001015,-0.1597
 9428,0.86473568,-0.00001510,0.00000488,0.01936456,0.00001241,0.0000097
 1,0.02101537,0.00000391,-0.00000102,-0.06106734,-0.00000318,-0.0000013
 1,-0.00961099,-0.00000731,-0.00001327,-0.07879123,0.00000724,0.0000042
 8,0.13786525,-0.00567630,0.00341840,0.00000384,-0.00478290,-0.00503043
 ,-0.00000187,0.01502772,-0.01909513,-0.00000028,-0.00009079,0.00037973
 ,0.,-0.00637767,0.02741406,-0.00000257,-0.13159989,0.13678236,0.000002
 02,0.13349983,-0.00313000,0.00080496,-0.00000591,-0.00152741,-0.001837
 93,0.00000299,0.01584724,-0.01492852,0.00000015,-0.00045770,-0.0006823
 3,-0.00000011,0.00049702,0.00635911,0.00000464,0.13263984,-0.29390906,
 -0.00000328,-0.14386899,0.30419377,-0.00000827,0.00000756,0.00904000,0
 .00000777,0.00000359,0.00632131,-0.00000735,-0.00000084,-0.00320461,0.
 00000279,0.00000104,-0.00075951,-0.00000532,-0.00000911,-0.00534224,0.
 00001153,-0.00000374,-0.02877561,-0.00000115,0.00000151,0.02272066\\-0
 .00018198,0.00009556,0.,0.00002140,0.00010965,0.,-0.00010975,-0.000275
 69,0.,-0.00004222,-0.00000944,0.,0.00022269,-0.00000409,0.,0.00007102,
 0.00009213,0.,0.00001884,-0.00000812,0.\\\@

 IN SO FAR AS QUANTUM MECHANICS IS CORRECT, CHEMICAL
 QUESTIONS ARE PROBLEMS IN APPLIED MATHEMATICS.

                    -- EYRING, WALTER, & KIMBALL, 1944
 Job cpu time:  0 days  0 hours 22 minutes 34.2 seconds.
 File lengths (MBytes):  RWF=   10 Int=    0 D2E=    0 Chk=    3 Scr=    1
 Normal termination of Gaussian 98.
