 Gaussian 98, Revision A.4,
 Gaussian 98:  IBM-RS6000-G98RevA.4 11-Sep-1998

 ----------------------
 #B3PW91/6-31G opt freq
 ----------------------

 ----------------------------------------
 1H tetrazole c CH-NH-N=N-N= casno=288948
 ----------------------------------------
 Symbolic Z-matrix:
 Charge =  0 Multiplicity = 1

 SCF Done:  E(RB+HF-PW91) =  -258.021196280     A.U. after   15 cycles
 SCF Done:  E(RB+HF-PW91) =  -258.032953324     A.U. after   14 cycles
 SCF Done:  E(RB+HF-PW91) =  -258.033259429     A.U. after   13 cycles
 SCF Done:  E(RB+HF-PW91) =  -258.033495103     A.U. after   11 cycles
 SCF Done:  E(RB+HF-PW91) =  -258.033509903     A.U. after    9 cycles
 SCF Done:  E(RB+HF-PW91) =  -258.033512555     A.U. after    9 cycles
 Optimization completed.
    -- Stationary point found.
 Normal termination of Gaussian 98.

 ------------------------------------------------
 #N Geom=AllCheck Guess=TCheck RB3PW91/6-31G Freq
 ------------------------------------------------

 1H tetrazole c CH-NH-N=N-N= casno=288948
 ----------------------------------------
 Redundant internal coordinates taken from checkpointfile:
 /wrk/rdj3/Gau-14754.chk
 Charge =  0 Multiplicity = 1

                         Standard orientation:
 ---------------------------------------------------------------------
 Center     Atomic     Atomic              Coordinates (Angstroms)
 Number     Number      Type              X           Y           Z
 ---------------------------------------------------------------------
    1          7             0       -0.735282   -0.949259    0.000000
    2          7             0       -1.145711    0.298515    0.000000
    3          7             0        0.000000    1.068587    0.000000
    4          1             0       -0.065151    2.072427    0.000000
    5          7             0        0.662477   -1.011864    0.000000
    6          6             0        1.081488    0.251714    0.000000
    7          1             0        2.105832    0.575440    0.000000
 ---------------------------------------------------------------------

 SCF Done:  E(RB+HF-PW91) =  -258.033512555     A.U. after    1 cycles

  The electronic state is 1-A'.
 Alpha  occ. eigenvalues --  -14.45033 -14.42566 -14.40632 -14.37837 -10.28547
 Alpha  occ. eigenvalues --   -1.18164  -0.97560  -0.93319  -0.70304  -0.68932
 Alpha  occ. eigenvalues --   -0.61893  -0.51839  -0.51213  -0.38453  -0.34932
 Alpha  occ. eigenvalues --   -0.33104  -0.31375  -0.30219
 Alpha virt. eigenvalues --   -0.04741  -0.00859   0.05674   0.09525   0.15148
 Alpha virt. eigenvalues --    0.17905   0.23724   0.30178   0.37219   0.51801
 Alpha virt. eigenvalues --    0.53524   0.60920   0.64638   0.65741   0.66692

  Exact polarizability:  37.924   1.123  37.092  -0.001   0.000  13.965
 Approx polarizability:  67.376  -0.201  72.688   0.000   0.000  18.097

                     1                      2                      3
                    A"                     A"                     A"
 Frequencies --   672.8192               718.5349               741.6598
 Red. masses --     4.0936                12.0788                 1.1248
 Frc consts  --     1.0918                 3.6743                 0.3645
 IR Inten    --    12.2194                 0.0916               162.1383
 Raman Activ --     0.0000                 0.0000                 0.0000

                     4                      5                      6
                    ?A                     ?A                     A'
 Frequencies --   871.5949               885.8074               955.2253
 Red. masses --     8.4581                 1.3957                 5.7464
 Frc consts  --     3.7858                 0.6452                 3.0893
 IR Inten    --     8.5435                15.7220                17.1884
 Raman Activ --     0.0000                 0.0000                 0.0000

                     7                      8                      9
                    A'                     A'                     A'
 Frequencies --  1012.4052              1040.4361              1151.9180
 Red. masses --     6.7004                 4.7465                 2.1112
 Frc consts  --     4.0463                 3.0273                 1.6505
 IR Inten    --     4.8512                13.1784                13.7946
 Raman Activ --     0.0000                 0.0000                 0.0000

                    10                     11                     12
                    A'                     A'                     A'
 Frequencies --  1201.3548              1251.9544              1422.6246
 Red. masses --     4.0458                 2.7992                 3.1307
 Frc consts  --     3.4403                 2.5850                 3.7332
 IR Inten    --    11.9605                 1.6188                 3.9164
 Raman Activ --     0.0000                 0.0000                 0.0000

                    13                     14                     15
                    A'                     A'                     A'
 Frequencies --  1492.8519              3369.4730              3727.8704
 Red. masses --     2.1375                 1.1024                 1.0846
 Frc consts  --     2.8066                 7.3742                 8.8803
 IR Inten    --    38.5279                 4.2562               106.8214
 Raman Activ --     0.0000                 0.0000                 0.0000

 - Thermochemistry -
 -------------------
 Temperature   298.150 Kelvin.  Pressure   1.00000 Atm.
 Atom  1 has atomic number  7 and mass  14.00307

 Molecular mass:    70.02795 amu.
 Principal axes and moments of inertia in atomic units:
                           1         2         3
     EIGENVALUES --   176.77346 180.56315 357.33661
           X            0.99277   0.12004   0.00000
           Y           -0.12004   0.99277   0.00000
           Z            0.00000   0.00000   1.00000
 THIS MOLECULE IS AN ASYMMETRIC TOP.
 ROTATIONAL SYMMETRY NUMBER  1.
 ROTATIONAL TEMPERATURES (KELVIN)      0.48997     0.47968     0.24239
 ROTATIONAL CONSTANTS (GHZ)           10.20934     9.99507     5.05054
 Zero-point vibrational energy     122716.1 (Joules/Mol)
                                   29.32986 (Kcal/Mol)
 VIBRATIONAL TEMPERATURES:    968.03  1033.81  1067.08  1254.02  1274.47
          (KELVIN)           1374.35  1456.62  1496.95  1657.34  1728.47
                             1801.27  2046.83  2147.87  4847.89  5363.54

 Zero-point correction=                           0.046740 (Hartree/Particle)
 Thermal correction to Energy=                    0.050189
 Thermal correction to Enthalpy=                  0.051133
 Thermal correction to Gibbs Free Energy=         0.020616
 Sum of electronic and zero-point Energies=           -257.986772
 Sum of electronic and thermal Energies=              -257.983324
 Sum of electronic and thermal Enthalpies=            -257.982379
 Sum of electronic and thermal Free Energies=         -258.012896

                     E (Thermal)             CV                S
                      KCAL/MOL        CAL/MOL-KELVIN    CAL/MOL-KELVIN
 TOTAL                   31.494             11.368             64.228
 ELECTRONIC               0.000              0.000              0.000
 TRANSLATIONAL            0.889              2.981             38.656
 ROTATIONAL               0.889              2.981             23.949
 VIBRATIONAL             29.717              5.406              1.623
                       Q            LOG10(Q)             LN(Q)
 TOTAL BOT       0.328995D-09         -9.482811        -21.834979
 TOTAL V=0       0.103752D+13         12.015997         27.667855
 VIB (BOT)       0.373603D-21        -21.427590        -49.338849
 VIB (V=0)       0.117820D+01          0.071218          0.163985
 ELECTRONIC      0.100000D+01          0.000000          0.000000
 TRANSLATIONAL   0.230339D+08          7.362368         16.952478
 ROTATIONAL      0.382306D+05          4.582411         10.551392
 ***** Axes restored to original set *****
 -------------------------------------------------------------------
 Center     Atomic                   Forces (Hartrees/Bohr)
 Number     Number              X              Y              Z
 -------------------------------------------------------------------
    1          7           0.000004513    0.000320650    0.000000000
    2          7          -0.000437439   -0.000211288    0.000000000
    3          7           0.000334966   -0.000059061    0.000000000
    4          1           0.000006671    0.000038379    0.000000000
    5          7          -0.000057318   -0.000155974    0.000000000
    6          6           0.000159657    0.000109388    0.000000000
    7          1          -0.000011049   -0.000042094    0.000000000
 -------------------------------------------------------------------
 Cartesian Forces:  Max     0.000437439 RMS     0.000157813

 GradGradGradGradGradGradGradGradGradGradGradGradGradGradGradGradGradGrad
 Berny optimization.
 Internal  Forces:  Max     0.000345782 RMS     0.000094433
 Search for a local minimum.
 Step number   1 out of a maximum of  36
 All quantities printed in internal units (Hartrees-Bohrs-Radians)
 Second derivative matrix not updated -- analytic derivatives used.
     Eigenvalues ---    0.01195   0.02759   0.07417   0.07845   0.10213
     Eigenvalues ---    0.11009   0.15983   0.19708   0.32456   0.38105
     Eigenvalues ---    0.39964   0.45326   0.49470   0.55593   0.62725
     Eigenvalues --- 1000.000001000.000001000.000001000.000001000.00000
     Eigenvalues --- 1000.000001000.000001000.000001000.000001000.00000
     Eigenvalues --- 1000.00000
 Angle between quadratic step and forces=  26.44 degrees.
 Linear search not attempted -- first point.
 Iteration  1 RMS(Cart)=  0.00032612 RMS(Int)=  0.00000009
 Iteration  2 RMS(Cart)=  0.00000008 RMS(Int)=  0.00000002
 Variable       Old X    -DE/DX   Delta X   Delta X   Delta X     New X
                                 (Linear)    (Quad)   (Total)
    R1        2.48223  -0.00024   0.00000  -0.00105  -0.00105   2.48118
    R2        2.64403   0.00013   0.00000   0.00060   0.00060   2.64463
    R3        2.60869   0.00035   0.00000   0.00155   0.00155   2.61024
    R4        1.90098   0.00003   0.00000   0.00006   0.00006   1.90104
    R5        2.56119   0.00000   0.00000  -0.00021  -0.00021   2.56098
    R6        2.51568   0.00016   0.00000   0.00035   0.00035   2.51603
    R7        2.03010   0.00001   0.00000   0.00002   0.00002   2.03012
    A1        1.93334   0.00004   0.00000   0.00037   0.00037   1.93370
    A2        1.84479   0.00002   0.00000  -0.00001  -0.00001   1.84479
    A3        2.09776   0.00000   0.00000  -0.00019  -0.00019   2.09758
    A4        1.90292  -0.00004   0.00000  -0.00035  -0.00035   1.90257
    A5        2.28251   0.00004   0.00000   0.00054   0.00054   2.28304
    A6        1.84623   0.00002   0.00000  -0.00026  -0.00026   1.84597
    A7        1.89750  -0.00005   0.00000   0.00025   0.00025   1.89775
    A8        2.18859   0.00006   0.00000   0.00038   0.00038   2.18897
    A9        2.19709  -0.00002   0.00000  -0.00063  -0.00063   2.19646
    D1        0.00000   0.00000   0.00000   0.00000   0.00000   0.00000
    D2        0.00000   0.00000   0.00000   0.00000   0.00000   0.00000
    D3        3.14159   0.00000   0.00000   0.00000   0.00000   3.14159
    D4        0.00000   0.00000   0.00000   0.00000   0.00000   0.00000
    D5        0.00000   0.00000   0.00000   0.00000   0.00000   0.00000
    D6        3.14159   0.00000   0.00000   0.00000   0.00000   3.14159
    D7        3.14159   0.00000   0.00000   0.00000   0.00000   3.14159
    D8        0.00000   0.00000   0.00000   0.00000   0.00000   0.00000
    D9        0.00000   0.00000   0.00000   0.00000   0.00000   0.00000
   D10        3.14159   0.00000   0.00000   0.00000   0.00000   3.14159
         Item               Value     Threshold  Converged?
 Maximum Force            0.000346     0.000450     YES
 RMS     Force            0.000094     0.000300     YES
 Maximum Displacement     0.000972     0.001800     YES
 RMS     Displacement     0.000326     0.001200     YES
 Predicted change in Energy=-4.959311D-07
 Optimization completed.
    -- Stationary point found.
                         ----------------------------
                         !   Optimized Parameters   !
                         ! (Angstroms and Degrees)  !
 ------------------------                            -------------------------
 ! Name  Definition              Value          Derivative Info.             !
 -----------------------------------------------------------------------------
 ! R1    R(1,2)                  1.3135         -DE/DX =   -0.0002           !
 ! R2    R(1,5)                  1.3992         -DE/DX =    0.0001           !
 ! R3    R(2,3)                  1.3805         -DE/DX =    0.0003           !
 ! R4    R(3,4)                  1.006          -DE/DX =    0.               !
 ! R5    R(3,6)                  1.3553         -DE/DX =    0.               !
 ! R6    R(5,6)                  1.3312         -DE/DX =    0.0002           !
 ! R7    R(6,7)                  1.0743         -DE/DX =    0.               !
 ! A1    A(2,1,5)              110.772          -DE/DX =    0.               !
 ! A2    A(1,2,3)              105.6989         -DE/DX =    0.               !
 ! A3    A(2,3,4)              120.193          -DE/DX =    0.               !
 ! A4    A(2,3,6)              109.029          -DE/DX =    0.               !
 ! A5    A(4,3,6)              130.778          -DE/DX =    0.               !
 ! A6    A(1,5,6)              105.7813         -DE/DX =    0.               !
 ! A7    A(3,6,5)              108.7187         -DE/DX =    0.               !
 ! A8    A(3,6,7)              125.3972         -DE/DX =    0.0001           !
 ! A9    A(5,6,7)              125.8841         -DE/DX =    0.               !
 ! D1    D(5,1,2,3)              0.             -DE/DX =    0.               !
 ! D2    D(2,1,5,6)              0.             -DE/DX =    0.               !
 ! D3    D(1,2,3,4)            180.             -DE/DX =    0.               !
 ! D4    D(1,2,3,6)              0.             -DE/DX =    0.               !
 ! D5    D(2,3,6,5)              0.             -DE/DX =    0.               !
 ! D6    D(2,3,6,7)            180.             -DE/DX =    0.               !
 ! D7    D(4,3,6,5)            180.             -DE/DX =    0.               !
 ! D8    D(4,3,6,7)              0.             -DE/DX =    0.               !
 ! D9    D(1,5,6,3)              0.             -DE/DX =    0.               !
 ! D10   D(1,5,6,7)            180.             -DE/DX =    0.               !
 -----------------------------------------------------------------------------
 GradGradGradGradGradGradGradGradGradGradGradGradGradGradGradGradGradGrad

 1\1\GINC-INDIUM\Freq\RB3PW91\6-31G\C1H2N4\RDJ3\22-Jun-2000\0\\#N GEOM=
 ALLCHECK GUESS=TCHECK RB3PW91/6-31G FREQ\\1H tetrazole c CH-NH-N=N-N=
 casno=288948\\0,1\N,-1.1699843993,-0.2699431125,0.\N,-0.6984075288,0.9
 560288862,0.\N,0.6760577586,0.827540414,0.\H,1.260698622,1.6461589208,
 0.\N,-0.1271319665,-1.2027393421,0.\C,0.9967823246,-0.4892859072,0.\H,
 1.9948703824,-0.8866513956,0.\\Version=IBM-RS6000-G98RevA.4\State=1-A'
 \HF=-258.0335126\RMSD=3.456e-09\RMSF=1.578e-04\Dipole=2.1240646,0.8901
 525,0.\DipoleDeriv=0.0676202,-0.1001365,0.0003293,-0.1754048,0.0066044
 ,-0.0003459,0.0001923,0.0002846,-0.1744971,0.2856918,0.1895007,-0.0000
 015,0.1908798,-0.2618372,-0.0000769,-0.0000295,-0.0003562,-0.0779749,-
 0.4459788,-0.2879669,0.0002466,-0.1977773,-0.3067099,0.0001991,0.00015
 18,0.0001791,-0.254211,0.2409424,0.0358805,-0.0000171,0.0325632,0.2815
 278,-0.0000419,0.0000017,0.0000269,0.4194355,-0.4159125,0.1419707,-0.0
 00183,-0.0147717,-0.2010016,0.0004073,0.000159,0.0000081,-0.1972721,0.
 1835795,0.0069958,-0.0004002,0.1653963,0.3421699,-0.0001444,-0.000251,
 -0.0001208,0.0841154,0.0840579,0.0137559,0.000026,-0.0008855,0.1392469
 ,0.0000027,-0.0002242,-0.0000217,0.2004042\Polar=38.6905771,-0.183592,
 36.3247647,-0.000464,0.0003226,13.9653154\PG=CS [SG(C1H2N4)]\NImag=0\\
 0.48357339,0.09812321,0.37748280,-0.00001893,0.00001661,0.11707010,-0.
 10948356,-0.09353023,0.00000919,0.34982730,-0.02235385,-0.25616196,0.0
 0000434,-0.04381682,0.54012047,0.00000810,-0.00001246,-0.09111619,-0.0
 0000965,0.00000239,0.11012141,-0.12034133,-0.10044643,-0.00001124,-0.1
 5171947,0.00841825,0.00000333,0.60903100,-0.02996456,-0.06248227,-0.00
 000851,0.04606966,-0.11195065,0.00000040,0.22453312,0.91721595,-0.0000
 0256,0.00000209,0.02507316,0.00000592,-0.00000020,-0.07257494,-0.00000
 255,0.00000008,0.11741038,-0.00983572,-0.00010237,0.00000020,-0.005801
 11,-0.03388238,0.00000204,-0.20667204,-0.19018785,0.00000044,0.2076208
 2,0.00948260,0.00211941,0.00000136,0.00600057,0.01155102,0.00000162,-0
 .19761024,-0.35134405,0.00000093,0.20351369,0.34725938,0.00000248,-0.0
 0000204,0.00710724,0.00000069,-0.00000104,-0.00820437,0.00000199,0.000
 00191,-0.01873181,-0.00000031,-0.00000049,0.01876151,-0.11585050,0.038
 42009,0.00001136,-0.01352810,0.08252414,-0.00000257,0.00074152,-0.1088
 9773,0.00000093,-0.00094521,-0.00013841,-0.00000170,0.42409351,-0.0181
 1497,-0.08135216,-0.00002142,-0.01512695,-0.12524099,0.00001187,0.0002
 3944,-0.08645578,-0.00000301,0.00956633,-0.00469678,0.00000273,0.12069
 438,0.46598850,-0.00000172,-0.00000573,-0.08583362,0.00000346,0.000004
 02,0.03325172,0.00000190,0.00000127,0.02215746,-0.00000070,-0.00000107
 ,0.00761121,0.00000331,0.00000273,0.10687623,-0.12653239,0.05756227,0.
 00000903,-0.06976066,0.01411375,-0.00000303,-0.13749230,0.06333008,-0.
 00000274,0.01582588,-0.02201899,-0.00000325,-0.28083806,-0.10790695,-0
 .00000735,0.93943033,-0.03120607,0.02190215,0.00000824,0.10230570,-0.0
 5276583,-0.00000340,0.03193608,-0.29850138,0.00000029,0.01132303,-0.00
 436319,-0.00000113,-0.11319407,-0.18138395,-0.00000081,-0.11887308,0.6
 1455971,0.00000069,0.00000754,0.01866901,-0.00000735,-0.00000333,0.022
 82398,-0.00000317,-0.00000247,-0.07195618,0.00000095,0.00000143,-0.005
 65621,-0.00000321,-0.00000464,-0.07970012,0.00001356,0.00000107,0.1480
 7894,-0.00152988,-0.00002654,0.00000039,0.00046559,-0.00500309,0.00000
 177,0.00645260,-0.00488273,0.00000056,-0.00019261,0.00077079,0.0000001
 0,-0.01367315,0.01064873,0.00000110,-0.34063280,0.11770840,-0.00000148
 ,0.34911026,-0.00596638,-0.00150796,-0.00000061,-0.00190193,-0.0055520
 6,-0.00000042,0.03292977,-0.00648182,-0.00000019,-0.00023044,-0.000525
 78,0.00000006,-0.01940840,0.01314116,-0.00000040,0.11379294,-0.0994475
 1,0.00000042,-0.11921556,0.10037398,0.00001193,-0.00000602,0.00903030,
 -0.00000227,-0.00000617,0.00569839,0.00000973,0.00000732,-0.00137807,-
 0.00000263,-0.00000377,-0.00088757,-0.00000811,0.00001174,-0.00436288,
 -0.00000623,-0.00000425,-0.03225942,-0.00000244,0.00000115,0.02415925\
 \-0.00000451,-0.00032065,0.,0.00043744,0.00021129,0.,-0.00033497,0.000
 05906,0.,-0.00000667,-0.00003838,0.,0.00005732,0.00015597,0.,-0.000159
 66,-0.00010939,0.,0.00001105,0.00004209,0.\\\@

 HONESTY IN A LAWYER IS LIKE A HEN'S HIND LEGS.
  -- MAGNUS OLESON, LAKE WOBEGON PATRIARCH, C.1875
 Job cpu time:  0 days  0 hours  4 minutes 32.6 seconds.
 File lengths (MBytes):  RWF=   10 Int=    0 D2E=    0 Chk=    3 Scr=    1
 Normal termination of Gaussian 98.
