 Gaussian 98, Revision A.4,
 Gaussian 98:  IBM-RS6000-G98RevA.4 11-Sep-1998

 ------------------------
 #B3PW91/6-31G** opt freq
 ------------------------

 ----------------------------------------
 1H tetrazole c CH-NH-N=N-N= casno=288948
 ----------------------------------------
 Symbolic Z-matrix:
 Charge =  0 Multiplicity = 1

 SCF Done:  E(RB+HF-PW91) =  -258.156149387     A.U. after   15 cycles
 SCF Done:  E(RB+HF-PW91) =  -258.159444106     A.U. after   12 cycles
 SCF Done:  E(RB+HF-PW91) =  -258.159505273     A.U. after   10 cycles
 SCF Done:  E(RB+HF-PW91) =  -258.159515234     A.U. after    9 cycles
 SCF Done:  E(RB+HF-PW91) =  -258.159518823     A.U. after    9 cycles
 SCF Done:  E(RB+HF-PW91) =  -258.159519600     A.U. after    8 cycles
 Optimization completed.
    -- Stationary point found.
 Normal termination of Gaussian 98.

 -----------------------------------------------------
 #N Geom=AllCheck Guess=TCheck RB3PW91/6-31G(d,p) Freq
 -----------------------------------------------------

 1H tetrazole c CH-NH-N=N-N= casno=288948
 ----------------------------------------
 Redundant internal coordinates taken from checkpointfile:
 /wrk/rdj3/Gau-14558.chk
 Charge =  0 Multiplicity = 1

                         Standard orientation:
 ---------------------------------------------------------------------
 Center     Atomic     Atomic              Coordinates (Angstroms)
 Number     Number      Type              X           Y           Z
 ---------------------------------------------------------------------
    1          7             0       -0.720724   -0.923413    0.000000
    2          7             0       -1.117666    0.302956    0.000000
    3          7             0        0.000000    1.051545    0.000000
    4          1             0       -0.059496    2.058554    0.000000
    5          7             0        0.633567   -1.006222    0.000000
    6          6             0        1.066325    0.234507    0.000000
    7          1             0        2.095311    0.560346    0.000000
 ---------------------------------------------------------------------

 SCF Done:  E(RB+HF-PW91) =  -258.159519600     A.U. after    1 cycles

  The electronic state is 1-A'.
 Alpha  occ. eigenvalues --  -14.44414 -14.40552 -14.38761 -14.35913 -10.26980
 Alpha  occ. eigenvalues --   -1.15758  -0.95863  -0.90404  -0.68935  -0.67430
 Alpha  occ. eigenvalues --   -0.60440  -0.50597  -0.50594  -0.38537  -0.33951
 Alpha  occ. eigenvalues --   -0.31647  -0.30923  -0.29408
 Alpha virt. eigenvalues --   -0.02472   0.01316   0.06313   0.11166   0.18265
 Alpha virt. eigenvalues --    0.19941   0.28085   0.32490   0.41242   0.51156
 Alpha virt. eigenvalues --    0.52440   0.59365   0.60486   0.64124   0.66632

  Exact polarizability:  37.902   0.907  36.831   0.007   0.010  15.756
 Approx polarizability:  65.693   0.293  69.462   0.000   0.000  24.175

                     1                      2                      3
                    A"                     A"                     A"
 Frequencies --   599.3121               696.0297               744.6084
 Red. masses --     1.8104                 1.9370                 7.9837
 Frc consts  --     0.3831                 0.5529                 2.6080
 IR Inten    --    88.1765                10.7598                 9.0067
 Raman Activ --     0.0000                 0.0000                 0.0000

                     4                      5                      6
                    A"                     A'                     A'
 Frequencies --   855.5030               984.2047              1018.0839
 Red. masses --     1.3617                 4.3961                 5.6234
 Frc consts  --     0.5872                 2.5089                 3.4341
 IR Inten    --    18.1670                 3.4768                 1.2152
 Raman Activ --     0.0000                 0.0000                 0.0000

                     7                      8                      9
                    A'                     A'                     A'
 Frequencies --  1076.2850              1092.7534              1158.1519
 Red. masses --     3.4962                 4.6629                 1.9146
 Frc consts  --     2.3861                 3.2806                 1.5131
 IR Inten    --    24.5568                23.2865                13.2298
 Raman Activ --     0.0000                 0.0000                 0.0000

                    10                     11                     12
                    A'                     A'                     A'
 Frequencies --  1281.4150              1319.5888              1480.4122
 Red. masses --     2.4545                10.7119                 3.3698
 Frc consts  --     2.3746                10.9899                 4.3513
 IR Inten    --     2.1778                16.1265                 9.0058
 Raman Activ --     0.0000                 0.0000                 0.0000

                    13                     14                     15
                    A'                     A'                     A'
 Frequencies --  1525.3835              3310.6165              3688.0281
 Red. masses --     3.4739                 1.1008                 1.0839
 Frc consts  --     4.7624                 7.1083                 8.6859
 IR Inten    --    17.3739                 0.8748                93.8176
 Raman Activ --     0.0000                 0.0000                 0.0000

 - Thermochemistry -
 -------------------
 Temperature   298.150 Kelvin.  Pressure   1.00000 Atm.
 Atom  1 has atomic number  7 and mass  14.00307

 Molecular mass:    70.02795 amu.
 Principal axes and moments of inertia in atomic units:
                           1         2         3
     EIGENVALUES --   170.74343 173.64755 344.39099
           X            0.85060   0.52581   0.00000
           Y           -0.52581   0.85060   0.00000
           Z            0.00000   0.00000   1.00000
 THIS MOLECULE IS AN ASYMMETRIC TOP.
 ROTATIONAL SYMMETRY NUMBER  1.
 ROTATIONAL TEMPERATURES (KELVIN)      0.50727     0.49879     0.25150
 ROTATIONAL CONSTANTS (GHZ)           10.56990    10.39313     5.24038
 Zero-point vibrational energy     124593.3 (Joules/Mol)
                                   29.77852 (Kcal/Mol)
 WARNING-- EXPLICIT CONSIDERATION OF   1 DEGREES OF FREEDOM AS
           VIBRATIONS MAY CAUSE SIGNIFICANT ERROR
 VIBRATIONAL TEMPERATURES:    862.27  1001.43  1071.32  1230.87  1416.04
          (KELVIN)           1464.79  1548.53  1572.22  1666.31  1843.66
                             1898.58  2129.97  2194.67  4763.21  5306.22

 Zero-point correction=                           0.047455 (Hartree/Particle)
 Thermal correction to Energy=                    0.050901
 Thermal correction to Enthalpy=                  0.051845
 Thermal correction to Gibbs Free Energy=         0.021376
 Sum of electronic and zero-point Energies=           -258.112065
 Sum of electronic and thermal Energies=              -258.108619
 Sum of electronic and thermal Enthalpies=            -258.107675
 Sum of electronic and thermal Free Energies=         -258.138144

                     E (Thermal)             CV                S
                      KCAL/MOL        CAL/MOL-KELVIN    CAL/MOL-KELVIN
 TOTAL                   31.941             11.160             64.127
 ELECTRONIC               0.000              0.000              0.000
 TRANSLATIONAL            0.889              2.981             38.656
 ROTATIONAL               0.889              2.981             23.839
 VIBRATIONAL             30.163              5.199              1.632
 VIBRATION  1             0.957              1.033              0.451
                       Q            LOG10(Q)             LN(Q)
 TOTAL BOT       0.147200D-09         -9.832092        -22.639228
 TOTAL V=0       0.989893D+12         11.995588         27.620863
 VIB (BOT)       0.176668D-21        -21.752841        -50.087768
 VIB (BOT)  1    0.249330D+00         -0.603225         -1.388978
 VIB (V=0)       0.118806D+01          0.074839          0.172324
 VIB (V=0)  1    0.105872D+01          0.024780          0.057058
 ELECTRONIC      0.100000D+01          0.000000          0.000000
 TRANSLATIONAL   0.230339D+08          7.362368         16.952478
 ROTATIONAL      0.361728D+05          4.558382         10.496062
 ***** Axes restored to original set *****
 -------------------------------------------------------------------
 Center     Atomic                   Forces (Hartrees/Bohr)
 Number     Number              X              Y              Z
 -------------------------------------------------------------------
    1          7           0.000153960    0.000010069    0.000000000
    2          7           0.000077751   -0.000111689    0.000000000
    3          7          -0.000066503    0.000286371    0.000000000
    4          1           0.000024892    0.000032635    0.000000000
    5          7          -0.000186684   -0.000112209    0.000000000
    6          6           0.000017521   -0.000102173    0.000000000
    7          1          -0.000020937   -0.000003003    0.000000000
 -------------------------------------------------------------------
 Cartesian Forces:  Max     0.000286371 RMS     0.000094887

 GradGradGradGradGradGradGradGradGradGradGradGradGradGradGradGradGradGrad
 Berny optimization.
 Internal  Forces:  Max     0.000202766 RMS     0.000070308
 Search for a local minimum.
 Step number   1 out of a maximum of  36
 All quantities printed in internal units (Hartrees-Bohrs-Radians)
 Second derivative matrix not updated -- analytic derivatives used.
     Eigenvalues ---    0.00861   0.02528   0.07281   0.07898   0.10204
     Eigenvalues ---    0.10579   0.20700   0.25880   0.35815   0.38269
     Eigenvalues ---    0.44496   0.47799   0.48959   0.58948   0.64112
     Eigenvalues --- 1000.000001000.000001000.000001000.000001000.00000
     Eigenvalues --- 1000.000001000.000001000.000001000.000001000.00000
     Eigenvalues --- 1000.00000
 Angle between quadratic step and forces=  10.63 degrees.
 Linear search not attempted -- first point.
 Iteration  1 RMS(Cart)=  0.00015857 RMS(Int)=  0.00000001
 Iteration  2 RMS(Cart)=  0.00000001 RMS(Int)=  0.00000001
 Variable       Old X    -DE/DX   Delta X   Delta X   Delta X     New X
                                 (Linear)    (Quad)   (Total)
    R1        2.43587  -0.00002   0.00000  -0.00011  -0.00011   2.43576
    R2        2.56402  -0.00010   0.00000  -0.00022  -0.00022   2.56380
    R3        2.54206  -0.00011   0.00000  -0.00021  -0.00021   2.54185
    R4        1.90629   0.00004   0.00000   0.00007   0.00007   1.90636
    R5        2.53857   0.00020   0.00000   0.00044   0.00044   2.53901
    R6        2.48317   0.00011   0.00000   0.00016   0.00016   2.48332
    R7        2.03966  -0.00002   0.00000  -0.00004  -0.00004   2.03962
    A1        1.94490   0.00011   0.00000   0.00018   0.00018   1.94508
    A2        1.84792   0.00007   0.00000   0.00018   0.00018   1.84810
    A3        2.10194   0.00005   0.00000   0.00015   0.00015   2.10209
    A4        1.89764  -0.00012   0.00000  -0.00029  -0.00029   1.89735
    A5        2.28361   0.00006   0.00000   0.00013   0.00013   2.28375
    A6        1.84533  -0.00011   0.00000  -0.00019  -0.00019   1.84514
    A7        1.88900   0.00005   0.00000   0.00010   0.00010   1.88910
    A8        2.18112  -0.00002   0.00000  -0.00006  -0.00006   2.18107
    A9        2.21307  -0.00003   0.00000  -0.00005  -0.00005   2.21302
    D1        0.00000   0.00000   0.00000   0.00000   0.00000   0.00000
    D2        0.00000   0.00000   0.00000   0.00000   0.00000   0.00000
    D3        3.14159   0.00000   0.00000   0.00000   0.00000   3.14159
    D4        0.00000   0.00000   0.00000   0.00000   0.00000   0.00000
    D5        0.00000   0.00000   0.00000   0.00000   0.00000   0.00000
    D6        3.14159   0.00000   0.00000   0.00000   0.00000   3.14159
    D7        3.14159   0.00000   0.00000   0.00000   0.00000   3.14159
    D8        0.00000   0.00000   0.00000   0.00000   0.00000   0.00000
    D9        0.00000   0.00000   0.00000   0.00000   0.00000   0.00000
   D10        3.14159   0.00000   0.00000   0.00000   0.00000   3.14159
         Item               Value     Threshold  Converged?
 Maximum Force            0.000203     0.000450     YES
 RMS     Force            0.000070     0.000300     YES
 Maximum Displacement     0.000459     0.001800     YES
 RMS     Displacement     0.000159     0.001200     YES
 Predicted change in Energy=-1.334955D-07
 Optimization completed.
    -- Stationary point found.
                         ----------------------------
                         !   Optimized Parameters   !
                         ! (Angstroms and Degrees)  !
 ------------------------                            -------------------------
 ! Name  Definition              Value          Derivative Info.             !
 -----------------------------------------------------------------------------
 ! R1    R(1,2)                  1.289          -DE/DX =    0.               !
 ! R2    R(1,5)                  1.3568         -DE/DX =   -0.0001           !
 ! R3    R(2,3)                  1.3452         -DE/DX =   -0.0001           !
 ! R4    R(3,4)                  1.0088         -DE/DX =    0.               !
 ! R5    R(3,6)                  1.3434         -DE/DX =    0.0002           !
 ! R6    R(5,6)                  1.314          -DE/DX =    0.0001           !
 ! R7    R(6,7)                  1.0793         -DE/DX =    0.               !
 ! A1    A(2,1,5)              111.4344         -DE/DX =    0.0001           !
 ! A2    A(1,2,3)              105.878          -DE/DX =    0.0001           !
 ! A3    A(2,3,4)              120.4321         -DE/DX =    0.0001           !
 ! A4    A(2,3,6)              108.7267         -DE/DX =   -0.0001           !
 ! A5    A(4,3,6)              130.8412         -DE/DX =    0.0001           !
 ! A6    A(1,5,6)              105.7294         -DE/DX =   -0.0001           !
 ! A7    A(3,6,5)              108.2316         -DE/DX =    0.0001           !
 ! A8    A(3,6,7)              124.9691         -DE/DX =    0.               !
 ! A9    A(5,6,7)              126.7994         -DE/DX =    0.               !
 ! D1    D(5,1,2,3)              0.             -DE/DX =    0.               !
 ! D2    D(2,1,5,6)              0.             -DE/DX =    0.               !
 ! D3    D(1,2,3,4)            180.             -DE/DX =    0.               !
 ! D4    D(1,2,3,6)              0.             -DE/DX =    0.               !
 ! D5    D(2,3,6,5)              0.             -DE/DX =    0.               !
 ! D6    D(2,3,6,7)            180.             -DE/DX =    0.               !
 ! D7    D(4,3,6,5)            180.             -DE/DX =    0.               !
 ! D8    D(4,3,6,7)              0.             -DE/DX =    0.               !
 ! D9    D(1,5,6,3)              0.             -DE/DX =    0.               !
 ! D10   D(1,5,6,7)            180.             -DE/DX =    0.               !
 -----------------------------------------------------------------------------
 GradGradGradGradGradGradGradGradGradGradGradGradGradGradGradGradGradGrad

 1\1\GINC-AURUM\Freq\RB3PW91\6-31G(d,p)\C1H2N4\RDJ3\05-Jun-2000\0\\#N G
 EOM=ALLCHECK GUESS=TCHECK RB3PW91/6-31G(D,P) FREQ\\1H tetrazole c CH-N
 H-N=N-N= casno=288948\\0,1\N,-1.1407005736,-0.2663406744,0.\N,-0.67980
 87252,0.9374541047,0.\N,0.6601237397,0.8185247612,0.\H,1.245977927,1.6
 397331894,0.\N,-0.1385016056,-1.1809772037,0.\C,0.9772452146,-0.486861
 7081,0.\H,1.9827609386,-0.8791898556,0.\\Version=IBM-RS6000-G98RevA.4\
 State=1-A'\HF=-258.1595196\RMSD=3.874e-09\RMSF=9.489e-05\Dipole=1.9464
 838,0.8418521,0.\DipoleDeriv=-0.0567774,-0.1485045,0.0001987,-0.199342
 3,0.0878389,0.0000783,0.0010407,0.0003768,-0.1552463,0.2504939,0.26769
 89,-0.0002566,0.2258826,-0.3235771,-0.0001932,-0.000159,0.0000292,-0.0
 993026,-0.3480747,-0.2876901,-0.0000546,-0.2045186,-0.2220089,-0.00017
 23,0.0002351,0.0001048,-0.1501859,0.224621,0.0394856,0.0000686,0.03174
 76,0.2651934,0.0001137,-0.0000793,0.0000087,0.3481357,-0.3367619,0.132
 5083,-0.000178,-0.0048716,-0.3419687,0.0002345,-0.0012786,-0.0006068,-
 0.2044247,0.2171078,-0.0156845,0.0003105,0.1432891,0.4172415,-0.000079
 5,0.0002497,-0.0000252,0.0939459,0.0493917,0.0121862,-0.0000886,0.0078
 133,0.1172813,0.0000185,-0.0000086,0.0001126,0.167078\Polar=38.3664945
 ,-0.3313137,36.3669673,0.0121716,0.0032039,15.7562297\PG=CS [SG(C1H2N4
 )]\NImag=0\\0.56283722,0.08949085,0.49934628,-0.00005417,-0.00000841,0
 .12625387,-0.14032003,-0.11478507,0.00001479,0.44599695,-0.05373129,-0
 .33134157,0.00005093,-0.03172504,0.62154327,0.00001283,0.00000191,-0.0
 9817842,-0.00000201,-0.00001170,0.11645342,-0.11446991,-0.11093522,-0.
 00000609,-0.22820616,0.02588387,0.00000268,0.67348747,-0.03208509,-0.0
 6415246,-0.00000960,0.06116118,-0.11917881,0.00000158,0.19674875,0.942
 81882,-0.00001202,-0.00000123,0.02682398,0.00000574,0.00001059,-0.0698
 1809,-0.00000184,0.00000087,0.09483990,-0.01119340,-0.00154700,0.00000
 389,-0.00594019,-0.03245321,-0.00000160,-0.19859673,-0.18267298,0.0000
 0010,0.20144215,0.00802279,0.00185066,0.00000430,0.00196984,0.01125770
 ,-0.00000189,-0.18932836,-0.34357804,-0.00000002,0.20046569,0.33980572
 ,0.00000046,0.00000096,0.00804009,-0.00000173,-0.00000082,-0.01198086,
 -0.00000083,-0.00000156,-0.00791289,0.00000088,0.00000139,0.01434867,-
 0.17319465,0.06998202,0.00001136,-0.00304571,0.08998979,0.00000016,-0.
 00398780,-0.11355524,0.00000240,-0.00010928,-0.00098852,-0.00000152,0.
 50368975,0.02953730,-0.13355232,-0.00005823,-0.01754852,-0.12569669,0.
 00001473,0.00296174,-0.08161306,-0.00001443,0.00920484,-0.00620249,0.0
 0000025,0.10148633,0.53767714,0.00007596,0.00001015,-0.09135258,-0.000
 02057,-0.00007066,0.03609758,0.00000952,0.00001166,0.02127440,-0.00000
 542,-0.00000675,0.00747779,-0.00001333,0.00008334,0.11075796,-0.120519
 06,0.06781600,0.00002240,-0.06837271,0.00596311,-0.00000753,-0.1328178
 9,0.07358835,0.00000414,0.01470759,-0.02075557,0.00000362,-0.30816317,
 -0.13606359,-0.00003935,0.94029428,-0.03466634,0.02931974,0.00002487,0
 .10139602,-0.05037293,-0.00000660,0.04287483,-0.32950390,0.00000490,0.
 00715371,-0.00275840,-0.00000042,-0.13050214,-0.20549496,-0.00003192,-
 0.09594769,0.65709487,-0.00001518,-0.00000603,0.01939278,0.00000260,0.
 00001642,0.02115705,0.00000156,0.00000252,-0.06231612,-0.00000019,-0.0
 0000051,-0.00915160,0.00000194,-0.00001527,-0.07909146,0.00000454,0.00
 000493,0.13934144,-0.00314016,-0.00002156,0.00000782,-0.00011215,-0.00
 392724,-0.00000452,0.00459102,-0.00318497,0.00000148,-0.00031013,0.000
 61414,-0.00000087,-0.01518914,0.01042190,-0.00000681,-0.32512905,0.109
 69163,0.00000474,0.33928962,-0.00656822,-0.00147030,-0.00000386,-0.000
 46840,-0.00621097,0.00000197,0.03179438,-0.00479256,-0.00000067,-0.000
 15103,-0.00037513,0.00000019,-0.01641223,0.01488239,0.00000417,0.10539
 939,-0.09828442,-0.00000207,-0.11359390,0.09625099,-0.00000789,0.00000
 265,0.00902028,0.00000118,0.00000523,0.00626932,-0.00000499,-0.0000054
 7,-0.00289117,0.00000234,0.00000348,-0.00082119,-0.00000100,-0.0000104
 0,-0.00516369,0.00001219,0.00000423,-0.02933209,-0.00000183,0.00000027
 ,0.02291854\\-0.00015396,-0.00001007,0.,-0.00007775,0.00011169,0.,0.00
 006650,-0.00028637,0.,-0.00002489,-0.00003263,0.,0.00018668,0.00011221
 ,0.,-0.00001752,0.00010217,0.,0.00002094,0.00000300,0.\\\@

 THE MOST INCOMPREHENSIBLE THING ABOUT THE WORLD
 IS THAT IT IS COMPREHENSIBLE. -- A. EINSTEIN
 Job cpu time:  0 days  0 hours 10 minutes 21.2 seconds.
 File lengths (MBytes):  RWF=   14 Int=    0 D2E=    0 Chk=    3 Scr=    1
 Normal termination of Gaussian 98.
