 Gaussian 98, Revision A.6,
 Gaussian 98:  IBM-RS6000-G98RevA.6 19-Oct-1998

 ----------------------
 #B3PW91/3-21G opt freq
 ----------------------

 ----------------------------------------
 1H tetrazole c CH-NH-N=N-N= casno=288948
 ----------------------------------------
 Symbolic Z-matrix:
 Charge =  0 Multiplicity = 1

 SCF Done:  E(RB+HF-PW91) =  -256.671266932     A.U. after   15 cycles
 SCF Done:  E(RB+HF-PW91) =  -256.689262748     A.U. after   14 cycles
 SCF Done:  E(RB+HF-PW91) =  -256.690457593     A.U. after   13 cycles
 SCF Done:  E(RB+HF-PW91) =  -256.690783350     A.U. after   12 cycles
 SCF Done:  E(RB+HF-PW91) =  -256.690870981     A.U. after    9 cycles
 SCF Done:  E(RB+HF-PW91) =  -256.690881288     A.U. after    9 cycles
 SCF Done:  E(RB+HF-PW91) =  -256.690885116     A.U. after    9 cycles
 SCF Done:  E(RB+HF-PW91) =  -256.690887241     A.U. after    9 cycles
 Optimization completed.
    -- Stationary point found.
 Normal termination of Gaussian 98.

 ------------------------------------------------
 #N Geom=AllCheck Guess=TCheck RB3PW91/3-21G Freq
 ------------------------------------------------

 1H tetrazole c CH-NH-N=N-N= casno=288948
 ----------------------------------------
 Redundant internal coordinates taken from checkpointfile:
 /wrk/rdj3/Gau-27340.chk
 Charge =  0 Multiplicity = 1

                         Standard orientation:
 ---------------------------------------------------------------------
 Center     Atomic     Atomic              Coordinates (Angstroms)
 Number     Number      Type              X           Y           Z
 ---------------------------------------------------------------------
    1          7             0       -0.740674   -0.966531    0.000000
    2          7             0       -1.167260    0.290537    0.000000
    3          7             0        0.000000    1.081559    0.000000
    4          1             0       -0.069634    2.091208    0.000000
    5          7             0        0.694745   -1.012053    0.000000
    6          6             0        1.077419    0.259402    0.000000
    7          1             0        2.097446    0.597802    0.000000
 ---------------------------------------------------------------------

 SCF Done:  E(RB+HF-PW91) =  -256.690887241     A.U. after    1 cycles

  The electronic state is 1-A'.
 Alpha  occ. eigenvalues --  -14.36999 -14.34270 -14.32420 -14.29207 -10.22405
 Alpha  occ. eigenvalues --   -1.15600  -0.95605  -0.92293  -0.68697  -0.67793
 Alpha  occ. eigenvalues --   -0.61142  -0.50445  -0.49640  -0.37523  -0.33536
 Alpha  occ. eigenvalues --   -0.32173  -0.30617  -0.29521
 Alpha virt. eigenvalues --   -0.03810   0.00284   0.07996   0.09740   0.16402
 Alpha virt. eigenvalues --    0.19358   0.25095   0.34917   0.38355   0.66691
 Alpha virt. eigenvalues --    0.69104   0.80216   0.82918   0.91712   1.00932

  Exact polarizability:  35.089   1.312  34.474  -0.001   0.002  11.360
 Approx polarizability:  66.222  -0.648  73.567   0.000   0.000  14.685

                     1                      2                      3
                    A"                     A"                     A"
 Frequencies --   645.3430               686.0237               691.1243
 Red. masses --     3.6350                 1.6247                 3.0654
 Frc consts  --     0.8919                 0.4505                 0.8627
 IR Inten    --    63.9948                48.6896                53.5325
 Raman Activ --     0.0000                 0.0000                 0.0000

                     4                      5                      6
                    A'                     A'                     A"
 Frequencies --   795.0005               877.0394               920.2743
 Red. masses --     9.9659                 6.3409                 1.3922
 Frc consts  --     3.7111                 2.8737                 0.6947
 IR Inten    --     9.4613                15.0588                17.0817
 Raman Activ --     0.0000                 0.0000                 0.0000

                     7                      8                      9
                    A'                     A'                     A'
 Frequencies --   986.3792              1015.0875              1084.9773
 Red. masses --     4.7290                 6.4457                 7.2284
 Frc consts  --     2.7109                 3.9132                 5.0134
 IR Inten    --     8.5683                 8.6011                 2.5295
 Raman Activ --     0.0000                 0.0000                 0.0000

                    10                     11                     12
                    A'                     A'                     A'
 Frequencies --  1152.1865              1219.9659              1373.2245
 Red. masses --     1.9777                 2.2494                 2.8921
 Frc consts  --     1.5468                 1.9724                 3.2133
 IR Inten    --    13.8930                 6.6707                 4.5238
 Raman Activ --     0.0000                 0.0000                 0.0000

                    13                     14                     15
                    A'                     A'                     A'
 Frequencies --  1441.3621              3332.5881              3617.4568
 Red. masses --     2.1850                 1.0999                 1.0845
 Frc consts  --     2.6745                 7.1971                 8.3617
 IR Inten    --    42.0404                 2.5190               109.3319
 Raman Activ --     0.0000                 0.0000                 0.0000

 - Thermochemistry -
 -------------------
 Temperature   298.150 Kelvin.  Pressure   1.00000 Atm.
 Atom  1 has atomic number  7 and mass  14.00307

 Molecular mass:    70.02795 amu.
 Principal axes and moments of inertia in atomic units:
                           1         2         3
     EIGENVALUES --   180.11525 185.17010 365.28535
           X            0.99209   0.12550   0.00000
           Y           -0.12550   0.99209   0.00000
           Z            0.00000   0.00000   1.00000
 THIS MOLECULE IS AN ASYMMETRIC TOP.
 ROTATIONAL SYMMETRY NUMBER  1.
 ROTATIONAL TEMPERATURES (KELVIN)      0.48088     0.46775     0.23711
 ROTATIONAL CONSTANTS (GHZ)           10.01992     9.74640     4.94063
 Zero-point vibrational energy     118657.8 (Joules/Mol)
                                   28.35990 (Kcal/Mol)
 VIBRATIONAL TEMPERATURES:    928.50   987.03   994.37  1143.82  1261.86
          (KELVIN)           1324.06  1419.17  1460.48  1561.03  1657.73
                             1755.25  1975.75  2073.79  4794.82  5204.68

 Zero-point correction=                           0.045194 (Hartree/Particle)
 Thermal correction to Energy=                    0.048737
 Thermal correction to Enthalpy=                  0.049682
 Thermal correction to Gibbs Free Energy=         0.019008
 Sum of electronic and zero-point Energies=           -256.645693
 Sum of electronic and thermal Energies=              -256.642150
 Sum of electronic and thermal Enthalpies=            -256.641206
 Sum of electronic and thermal Free Energies=         -256.671879

                     E (Thermal)             CV                S
                      KCAL/MOL        CAL/MOL-KELVIN    CAL/MOL-KELVIN
 TOTAL                   30.583             11.950             64.558
 ELECTRONIC               0.000              0.000              0.000
 TRANSLATIONAL            0.889              2.981             38.656
 ROTATIONAL               0.889              2.981             24.014
 VIBRATIONAL             28.806              5.989              1.888
                       Q            LOG10(Q)             LN(Q)
 TOTAL BOT       0.180734D-08         -8.742960        -20.131410
 TOTAL V=0       0.110883D+13         12.044866         27.734329
 VIB (BOT)       0.198585D-20        -20.702054        -47.668241
 VIB (V=0)       0.121835D+01          0.085772          0.197498
 ELECTRONIC      0.100000D+01          0.000000          0.000000
 TRANSLATIONAL   0.230339D+08          7.362368         16.952478
 ROTATIONAL      0.395117D+05          4.596726         10.584353
 ***** Axes restored to original set *****
 -------------------------------------------------------------------
 Center     Atomic                   Forces (Hartrees/Bohr)
 Number     Number              X              Y              Z
 -------------------------------------------------------------------
    1          7          -0.000076938    0.000226573    0.000000000
    2          7          -0.000153851   -0.000209884    0.000000000
    3          7           0.000000578    0.000445013    0.000000000
    4          1           0.000058445    0.000025329    0.000000000
    5          7          -0.000185215   -0.000219455    0.000000000
    6          6           0.000345647   -0.000315843    0.000000000
    7          1           0.000011333    0.000048267    0.000000000
 -------------------------------------------------------------------
 Cartesian Forces:  Max     0.000445013 RMS     0.000173373

 GradGradGradGradGradGradGradGradGradGradGradGradGradGradGradGradGradGrad
 Berny optimization.
 Internal  Forces:  Max     0.000383559 RMS     0.000112793
 Search for a local minimum.
 Step number   1 out of a maximum of  36
 All quantities printed in internal units (Hartrees-Bohrs-Radians)
 Second derivative matrix not updated -- analytic derivatives used.
     Eigenvalues ---    0.01049   0.02872   0.07129   0.07506   0.09811
     Eigenvalues ---    0.10438   0.13065   0.16911   0.30064   0.33529
     Eigenvalues ---    0.38954   0.43148   0.46706   0.52742   0.60616
     Eigenvalues --- 1000.000001000.000001000.000001000.000001000.00000
     Eigenvalues --- 1000.000001000.000001000.000001000.000001000.00000
     Eigenvalues --- 1000.00000
 Angle between quadratic step and forces=  33.29 degrees.
 Linear search not attempted -- first point.
 Iteration  1 RMS(Cart)=  0.00030322 RMS(Int)=  0.00000007
 Iteration  2 RMS(Cart)=  0.00000007 RMS(Int)=  0.00000002
 Variable       Old X    -DE/DX   Delta X   Delta X   Delta X     New X
                                 (Linear)    (Quad)   (Total)
    R1        2.50857  -0.00011   0.00000  -0.00083  -0.00083   2.50774
    R2        2.71391   0.00014   0.00000   0.00088   0.00088   2.71479
    R3        2.66459   0.00013   0.00000   0.00039   0.00039   2.66498
    R4        1.91249   0.00005   0.00000   0.00012   0.00012   1.91261
    R5        2.56110   0.00038   0.00000   0.00102   0.00102   2.56212
    R6        2.50917   0.00029   0.00000   0.00038   0.00038   2.50955
    R7        2.03088  -0.00001   0.00000  -0.00002  -0.00002   2.03086
    A1        1.92965   0.00005   0.00000   0.00016   0.00016   1.92982
    A2        1.83923   0.00013   0.00000   0.00042   0.00042   1.83965
    A3        2.09752   0.00007   0.00000   0.00048   0.00048   2.09800
    A4        1.89419  -0.00009   0.00000  -0.00034  -0.00034   1.89385
    A5        2.29148   0.00001   0.00000  -0.00014  -0.00014   2.29133
    A6        1.83144  -0.00001   0.00000  -0.00019  -0.00019   1.83125
    A7        1.93027  -0.00008   0.00000  -0.00005  -0.00005   1.93021
    A8        2.16944  -0.00001   0.00000  -0.00052  -0.00052   2.16892
    A9        2.18348   0.00009   0.00000   0.00057   0.00057   2.18405
    D1        0.00000   0.00000   0.00000   0.00000   0.00000   0.00000
    D2        0.00000   0.00000   0.00000   0.00000   0.00000   0.00000
    D3        3.14159   0.00000   0.00000   0.00000   0.00000   3.14159
    D4        0.00000   0.00000   0.00000   0.00000   0.00000   0.00000
    D5        0.00000   0.00000   0.00000   0.00000   0.00000   0.00000
    D6        3.14159   0.00000   0.00000   0.00000   0.00000   3.14159
    D7        3.14159   0.00000   0.00000   0.00000   0.00000   3.14159
    D8        0.00000   0.00000   0.00000   0.00000   0.00000   0.00000
    D9        0.00000   0.00000   0.00000   0.00000   0.00000   0.00000
   D10        3.14159   0.00000   0.00000   0.00000   0.00000   3.14159
         Item               Value     Threshold  Converged?
 Maximum Force            0.000384     0.000450     YES
 RMS     Force            0.000113     0.000300     YES
 Maximum Displacement     0.000615     0.001800     YES
 RMS     Displacement     0.000303     0.001200     YES
 Predicted change in Energy=-4.819379D-07
 Optimization completed.
    -- Stationary point found.
                         ----------------------------
                         !   Optimized Parameters   !
                         ! (Angstroms and Degrees)  !
 ------------------------                            -------------------------
 ! Name  Definition              Value          Derivative Info.             !
 -----------------------------------------------------------------------------
 ! R1    R(1,2)                  1.3275         -DE/DX =   -0.0001           !
 ! R2    R(1,5)                  1.4361         -DE/DX =    0.0001           !
 ! R3    R(2,3)                  1.41           -DE/DX =    0.0001           !
 ! R4    R(3,4)                  1.012          -DE/DX =    0.0001           !
 ! R5    R(3,6)                  1.3553         -DE/DX =    0.0004           !
 ! R6    R(5,6)                  1.3278         -DE/DX =    0.0003           !
 ! R7    R(6,7)                  1.0747         -DE/DX =    0.               !
 ! A1    A(2,1,5)              110.5611         -DE/DX =    0.0001           !
 ! A2    A(1,2,3)              105.3799         -DE/DX =    0.0001           !
 ! A3    A(2,3,4)              120.1791         -DE/DX =    0.0001           !
 ! A4    A(2,3,6)              108.529          -DE/DX =   -0.0001           !
 ! A5    A(4,3,6)              131.2919         -DE/DX =    0.               !
 ! A6    A(1,5,6)              104.934          -DE/DX =    0.               !
 ! A7    A(3,6,5)              110.5961         -DE/DX =   -0.0001           !
 ! A8    A(3,6,7)              124.2999         -DE/DX =    0.               !
 ! A9    A(5,6,7)              125.104          -DE/DX =    0.0001           !
 ! D1    D(5,1,2,3)              0.             -DE/DX =    0.               !
 ! D2    D(2,1,5,6)              0.             -DE/DX =    0.               !
 ! D3    D(1,2,3,4)            180.             -DE/DX =    0.               !
 ! D4    D(1,2,3,6)              0.             -DE/DX =    0.               !
 ! D5    D(2,3,6,5)              0.             -DE/DX =    0.               !
 ! D6    D(2,3,6,7)            180.             -DE/DX =    0.               !
 ! D7    D(4,3,6,5)            180.             -DE/DX =    0.               !
 ! D8    D(4,3,6,7)              0.             -DE/DX =    0.               !
 ! D9    D(1,5,6,3)              0.             -DE/DX =    0.               !
 ! D10   D(1,5,6,7)            180.             -DE/DX =    0.               !
 -----------------------------------------------------------------------------
 GradGradGradGradGradGradGradGradGradGradGradGradGradGradGradGradGradGrad

 1\1\GINC-QUANTUM\Freq\RB3PW91\3-21G\C1H2N4\RDJ3\05-May-2000\0\\#N GEOM
 =ALLCHECK GUESS=TCHECK RB3PW91/3-21G FREQ\\1H tetrazole c CH-NH-N=N-N=
  casno=288948\\0,1\N,-1.1871829296,-0.2708835218,0.\N,-0.7127924103,0.
 9689346274,0.\N,0.6906170214,0.8323567702,0.\H,1.281727048,1.653836716
 5,0.\N,-0.1115665155,-1.2224870036,0.\C,0.9948089621,-0.4883407978,0.\
 H,1.9958930182,-0.8792380351,0.\\Version=IBM-RS6000-G98RevA.6\State=1-
 A'\HF=-256.6908872\RMSD=2.204e-09\RMSF=1.734e-04\Dipole=2.0037639,0.87
 30066,0.\DipoleDeriv=0.1074969,-0.0712136,-0.0000205,-0.1760395,-0.042
 4043,-0.0002236,-0.0000364,0.0000484,-0.1573242,0.2747328,0.1710954,0.
 0000121,0.1561082,-0.2274383,0.0001898,-0.0000974,0.000023,-0.063543,-
 0.4545884,-0.2127286,0.0002235,-0.2183832,-0.3029172,-0.0000114,0.0000
 27,0.0000268,-0.2659447,0.2407513,0.0277349,-0.0001264,0.0418883,0.289
 3722,-0.0001722,0.0000377,-0.0000419,0.4087847,-0.4314545,0.1130927,0.
 0000394,0.0272187,-0.1703582,0.0001217,-0.000001,0.0000681,-0.192865,0
 .1910282,-0.0506142,-0.0001625,0.17157,0.3173371,0.000106,0.0001048,-0
 .0001744,0.0740616,0.0720341,0.0226333,0.0000344,-0.0023625,0.1364088,
 -0.0000102,-0.0000347,0.0000501,0.1968306\Polar=36.1279694,-0.0598321,
 33.4354843,-0.0001606,0.0020871,11.3598696\PG=CS [SG(C1H2N4)]\NImag=0\
 \0.44083100,0.08359625,0.30363105,0.00000096,0.00000393,0.10658837,-0.
 09613283,-0.07254898,-0.00000053,0.30340384,-0.00214666,-0.19855159,-0
 .00000351,-0.06037472,0.45965523,0.00000280,0.00000093,-0.08292307,-0.
 00000090,-0.00000356,0.09994917,-0.11295235,-0.09485266,-0.00000267,-0
 .12148736,0.00776973,-0.00000293,0.55323886,-0.02786345,-0.06222915,-0
 .00000016,0.04331926,-0.10001035,0.00000857,0.21661561,0.86753461,0.00
 000039,0.00000467,0.02216989,0.00000009,-0.00000472,-0.06473206,-0.000
 00787,0.00000341,0.10369526,-0.00922501,-0.00072417,0.00000134,-0.0033
 4616,-0.03037162,0.00000082,-0.19529891,-0.17981333,0.00000437,0.19486
 793,0.00901999,0.00168101,0.00000215,0.00513990,0.01032955,0.00000115,
 -0.18467680,-0.33014145,0.00000549,0.19221777,0.32655472,0.00000028,-0
 .00000632,0.00676878,0.00000186,0.00000419,-0.00859212,0.00000407,0.00
 000441,-0.01392654,-0.00000369,-0.00000500,0.01592799,-0.09348280,0.02
 963778,-0.00000105,-0.01459503,0.07514124,-0.00000632,-0.00163215,-0.1
 0426499,-0.00000129,-0.00105199,-0.00033900,-0.00000262,0.38422118,-0.
 02739630,-0.06253766,-0.00000144,-0.01450825,-0.11496669,-0.00000285,-
 0.00213014,-0.08844315,-0.00000377,0.00860630,-0.00450059,0.00000070,0
 .12782463,0.43265298,-0.00000227,0.00000723,-0.07828947,-0.00000073,-0
 .00000272,0.02948952,-0.00000209,-0.00000956,0.02423310,0.00000263,0.0
 0000359,0.00693440,0.00000426,-0.00000141,0.10079154,-0.12769671,0.054
 62714,0.00000266,-0.06836138,0.01501992,0.00000560,-0.12648398,0.05755
 066,0.00000441,0.01428682,-0.02217996,-0.00000233,-0.25823075,-0.10284
 642,0.00000242,0.89833742,-0.02914608,0.01902845,-0.00000126,0.1006185
 6,-0.05093472,-0.00000394,0.02406734,-0.27772239,-0.00000495,0.0104068
 8,-0.00330652,0.00000273,-0.10749635,-0.17327553,0.00000153,-0.1127499
 1,0.57856554,-0.00000009,-0.00001581,0.01644400,0.00000169,0.00001147,
 0.02157789,0.00001051,0.00000383,-0.07164578,-0.00000672,-0.00000924,-
 0.00605137,0.00000221,0.00000820,-0.07985552,-0.00001341,0.00000342,0.
 15559658,-0.00134131,0.00026464,-0.00000071,0.00051891,-0.00503790,0.0
 0000092,0.00461588,-0.00554376,-0.00000011,-0.00023268,0.00081812,0.00
 000243,-0.01522847,0.01045018,-0.00000421,-0.33185144,0.11429956,0.000
 00582,0.34351913,-0.00606375,-0.00102210,0.00000029,-0.00164577,-0.005
 52143,-0.00000030,0.03320691,-0.00898812,-0.00000011,-0.00032181,-0.00
 061671,-0.00000071,-0.02050332,0.01107065,0.00000134,0.11057858,-0.092
 35483,-0.00000187,-0.11525084,0.09743255,-0.00000207,0.00000536,0.0092
 4149,-0.00000148,-0.00000113,0.00523067,0.00000098,-0.00001050,0.00020
 613,0.00000124,0.00000186,-0.00106114,0.00000480,0.00000057,-0.0033035
 7,0.00000067,0.00000249,-0.03606582,-0.00000414,0.00000136,0.02575223\
 \0.00007694,-0.00022657,0.,0.00015385,0.00020988,0.,-0.00000058,-0.000
 44501,0.,-0.00005845,-0.00002533,0.,0.00018521,0.00021945,0.,-0.000345
 65,0.00031584,0.,-0.00001133,-0.00004827,0.\\\@

 SIGN SEEN IN A RESTAURANT-
 WE RESERVE THE RIGHT TO SERVE REFUSE TO ANYONE.
 Job cpu time:  0 days  0 hours  3 minutes 16.9 seconds.
 File lengths (MBytes):  RWF=   10 Int=    0 D2E=    0 Chk=    3 Scr=    1
 Normal termination of Gaussian 98.
