 Gaussian 98, Revision A.6,
 Gaussian 98:  x86-Linux-G98RevA.6 19-Oct-1998

 -----------------------------
 #B3PW91/6-31G(2df,p) opt freq
 -----------------------------

 ------------------------------------
 1htz casno=288948 method=16 basis=19
 ------------------------------------
 Symbolic Z-matrix:
 Charge =  0 Multiplicity = 1

 SCF Done:  E(RB+HF-PW91) =  -258.169664367     A.U. after   14 cycles
 SCF Done:  E(RB+HF-PW91) =  -258.172359048     A.U. after   11 cycles
 SCF Done:  E(RB+HF-PW91) =  -258.172420713     A.U. after    9 cycles
 SCF Done:  E(RB+HF-PW91) =  -258.172432709     A.U. after    9 cycles
 SCF Done:  E(RB+HF-PW91) =  -258.172436332     A.U. after    8 cycles
 SCF Done:  E(RB+HF-PW91) =  -258.172437227     A.U. after    8 cycles
 Optimization completed.
    -- Stationary point found.
 Normal termination of Gaussian 98.

 -------------------------------------------------------
 #N Geom=AllCheck Guess=TCheck RB3PW91/6-31G(2df,p) Freq
 -------------------------------------------------------

 1htz casno=288948 method=16 basis=19
 ------------------------------------
 Redundant internal coordinates taken from checkpointfile:
 /scr/rdj3/Gau-20060.chk
 Charge =  0 Multiplicity = 1

                         Standard orientation:
 ---------------------------------------------------------------------
 Center     Atomic     Atomic              Coordinates (Angstroms)
 Number     Number      Type              X           Y           Z
 ---------------------------------------------------------------------
    1          7             0       -0.719765   -0.922043    0.000000
    2          7             0       -1.114577    0.302920    0.000000
    3          7             0        0.000000    1.050005    0.000000
    4          1             0       -0.061238    2.055103    0.000000
    5          7             0        0.632777   -1.005422    0.000000
    6          6             0        1.063564    0.234110    0.000000
    7          1             0        2.090811    0.562018    0.000000
 ---------------------------------------------------------------------

 SCF Done:  E(RB+HF-PW91) =  -258.172437227     A.U. after    1 cycles

  The electronic state is 1-A'.
 Alpha  occ. eigenvalues --  -14.43460 -14.39738 -14.38073 -14.35217 -10.26270
 Alpha  occ. eigenvalues --   -1.15360  -0.95503  -0.89962  -0.68584  -0.67117
 Alpha  occ. eigenvalues --   -0.60131  -0.50483  -0.50244  -0.38340  -0.33734
 Alpha  occ. eigenvalues --   -0.31369  -0.30689  -0.29242
 Alpha virt. eigenvalues --   -0.02132   0.01507   0.06614   0.11477   0.18357
 Alpha virt. eigenvalues --    0.20024   0.26936   0.29252   0.38492   0.42904
 Alpha virt. eigenvalues --    0.46717   0.48220   0.51176   0.54460   0.56272

  Exact polarizability:  39.515   1.062  38.283   0.045   0.021  18.459
 Approx polarizability:  67.778   0.385  71.132   0.000   0.000  29.417

                     1                      2                      3
                    A"                     A"                     A"
 Frequencies --   599.7636               697.5137               749.1310
 Red. masses --     1.7117                 2.0188                 8.2974
 Frc consts  --     0.3628                 0.5787                 2.7435
 IR Inten    --    77.9362                 7.1935                 8.1149
 Raman Activ --     0.0000                 0.0000                 0.0000

                     4                      5                      6
                    A"                     A'                     A'
 Frequencies --   867.1228               985.6616              1020.4970
 Red. masses --     1.3734                 4.2980                 5.5863
 Frc consts  --     0.6084                 2.4602                 3.4277
 IR Inten    --    13.9965                 3.4702                 1.5810
 Raman Activ --     0.0000                 0.0000                 0.0000

                     7                      8                      9
                    A'                     A'                     A'
 Frequencies --  1080.7636              1091.0992              1157.1241
 Red. masses --     3.5226                 4.3267                 1.9771
 Frc consts  --     2.4242                 3.0349                 1.5597
 IR Inten    --    22.7862                23.3209                12.5056
 Raman Activ --     0.0000                 0.0000                 0.0000

                    10                     11                     12
                    A'                     A'                     A'
 Frequencies --  1276.8948              1317.2966              1472.6326
 Red. masses --     2.4721                10.8571                 3.3009
 Frc consts  --     2.3748                11.1002                 4.2176
 IR Inten    --     1.9931                13.3396                 8.9499
 Raman Activ --     0.0000                 0.0000                 0.0000

                    13                     14                     15
                    A'                     A'                     A'
 Frequencies --  1518.1728              3298.3486              3683.5278
 Red. masses --     3.5597                 1.1006                 1.0835
 Frc consts  --     4.8340                 7.0543                 8.6614
 IR Inten    --    16.5739                 0.6157                90.3436
 Raman Activ --     0.0000                 0.0000                 0.0000

 - Thermochemistry -
 -------------------
 Temperature   298.150 Kelvin.  Pressure   1.00000 Atm.
 Atom  1 has atomic number  7 and mass  14.00307

 Molecular mass:    70.02795 amu.
 Principal axes and moments of inertia in atomic units:
                           1         2         3
     EIGENVALUES --   170.18159 173.00612 343.18771
           X            0.81613   0.57786   0.00000
           Y           -0.57786   0.81613   0.00000
           Z            0.00000   0.00000   1.00000
 THIS MOLECULE IS AN ASYMMETRIC TOP.
 ROTATIONAL SYMMETRY NUMBER  1.
 ROTATIONAL TEMPERATURES (KELVIN)      0.50895     0.50064     0.25238
 ROTATIONAL CONSTANTS (GHZ)           10.60480    10.43166     5.25876
 Zero-point vibrational energy     124504.7 (Joules/Mol)
                                   29.75733 (Kcal/Mol)
 WARNING-- EXPLICIT CONSIDERATION OF   1 DEGREES OF FREEDOM AS
           VIBRATIONS MAY CAUSE SIGNIFICANT ERROR
 VIBRATIONAL TEMPERATURES:    862.92  1003.56  1077.83  1247.59  1418.14
          (KELVIN)           1468.26  1554.97  1569.84  1664.83  1837.16
                             1895.29  2118.78  2184.30  4745.56  5299.74

 Zero-point correction=                           0.047421 (Hartree/Particle)
 Thermal correction to Energy=                    0.050862
 Thermal correction to Enthalpy=                  0.051806
 Thermal correction to Gibbs Free Energy=         0.021349
 Sum of electronic and zero-point Energies=           -258.125016
 Sum of electronic and thermal Energies=              -258.121576
 Sum of electronic and thermal Enthalpies=            -258.120632
 Sum of electronic and thermal Free Energies=         -258.151088

                     E (Thermal)             CV                S
                      KCAL/MOL        CAL/MOL-KELVIN    CAL/MOL-KELVIN
 TOTAL                   31.916             11.133             64.102
 ELECTRONIC               0.000              0.000              0.000
 TRANSLATIONAL            0.889              2.981             38.656
 ROTATIONAL               0.889              2.981             23.828
 VIBRATIONAL             30.139              5.171              1.617
 VIBRATION  1             0.958              1.032              0.450
                       Q            LOG10(Q)             LN(Q)
 TOTAL BOT       0.151463D-09         -9.819694        -22.610680
 TOTAL V=0       0.982767D+12         11.992451         27.613638
 VIB (BOT)       0.182741D-21        -21.738163        -50.053971
 VIB (BOT)  1    0.249027D+00         -0.603754         -1.390195
 VIB (V=0)       0.118572D+01          0.073981          0.170347
 VIB (V=0)  1    0.105858D+01          0.024725          0.056931
 ELECTRONIC      0.100000D+01          0.000000          0.000000
 TRANSLATIONAL   0.230339D+08          7.362368         16.952478
 ROTATIONAL      0.359834D+05          4.556102         10.490813
 ***** Axes restored to original set *****
 -------------------------------------------------------------------
 Center     Atomic                   Forces (Hartrees/Bohr)
 Number     Number              X              Y              Z
 -------------------------------------------------------------------
    1          7           0.000076763    0.000130499    0.000000000
    2          7           0.000060863   -0.000045088    0.000000000
    3          7          -0.000220007    0.000204729    0.000000000
    4          1           0.000004869    0.000045783    0.000000000
    5          7          -0.000012890   -0.000230046    0.000000000
    6          6           0.000108490   -0.000085040    0.000000000
    7          1          -0.000018088   -0.000020836    0.000000000
 -------------------------------------------------------------------
 Cartesian Forces:  Max     0.000230046 RMS     0.000096102

 GradGradGradGradGradGradGradGradGradGradGradGradGradGradGradGradGradGrad
 Berny optimization.
 Internal  Forces:  Max     0.000241569 RMS     0.000071772
 Search for a local minimum.
 Step number   1 out of a maximum of  36
 All quantities printed in internal units (Hartrees-Bohrs-Radians)
 Second derivative matrix not updated -- analytic derivatives used.
     Eigenvalues ---    0.00859   0.02564   0.07358   0.07980   0.10082
     Eigenvalues ---    0.10483   0.20580   0.25862   0.35664   0.37990
     Eigenvalues ---    0.44208   0.47796   0.49050   0.58874   0.64224
     Eigenvalues --- 1000.000001000.000001000.000001000.000001000.00000
     Eigenvalues --- 1000.000001000.000001000.000001000.000001000.00000
     Eigenvalues --- 1000.00000
 Angle between quadratic step and forces=  16.20 degrees.
 Linear search not attempted -- first point.
 Iteration  1 RMS(Cart)=  0.00015749 RMS(Int)=  0.00000002
 Iteration  2 RMS(Cart)=  0.00000001 RMS(Int)=  0.00000001
 Variable       Old X    -DE/DX   Delta X   Delta X   Delta X     New X
                                 (Linear)    (Quad)   (Total)
    R1        2.43211  -0.00002   0.00000  -0.00015  -0.00015   2.43196
    R2        2.56079  -0.00004   0.00000  -0.00004  -0.00004   2.56075
    R3        2.53563  -0.00006   0.00000  -0.00008  -0.00008   2.53555
    R4        1.90288   0.00004   0.00000   0.00008   0.00008   1.90296
    R5        2.53312   0.00024   0.00000   0.00051   0.00051   2.53362
    R6        2.47980   0.00011   0.00000   0.00014   0.00014   2.47995
    R7        2.03772  -0.00002   0.00000  -0.00005  -0.00005   2.03767
    A1        1.94416   0.00013   0.00000   0.00024   0.00024   1.94440
    A2        1.84951   0.00004   0.00000   0.00014   0.00014   1.84965
    A3        2.10045   0.00005   0.00000   0.00018   0.00018   2.10063
    A4        1.89671  -0.00010   0.00000  -0.00029  -0.00029   1.89643
    A5        2.28603   0.00005   0.00000   0.00011   0.00011   2.28613
    A6        1.84371  -0.00013   0.00000  -0.00025  -0.00025   1.84346
    A7        1.89069   0.00006   0.00000   0.00015   0.00015   1.89084
    A8        2.17823  -0.00002   0.00000  -0.00010  -0.00010   2.17813
    A9        2.21426  -0.00003   0.00000  -0.00005  -0.00005   2.21422
    D1        0.00000   0.00000   0.00000   0.00000   0.00000   0.00000
    D2        0.00000   0.00000   0.00000   0.00000   0.00000   0.00000
    D3        3.14159   0.00000   0.00000   0.00000   0.00000   3.14159
    D4        0.00000   0.00000   0.00000   0.00000   0.00000   0.00000
    D5        0.00000   0.00000   0.00000   0.00000   0.00000   0.00000
    D6        3.14159   0.00000   0.00000   0.00000   0.00000   3.14159
    D7        3.14159   0.00000   0.00000   0.00000   0.00000   3.14159
    D8        0.00000   0.00000   0.00000   0.00000   0.00000   0.00000
    D9        0.00000   0.00000   0.00000   0.00000   0.00000   0.00000
   D10        3.14159   0.00000   0.00000   0.00000   0.00000   3.14159
         Item               Value     Threshold  Converged?
 Maximum Force            0.000242     0.000450     YES
 RMS     Force            0.000072     0.000300     YES
 Maximum Displacement     0.000387     0.001800     YES
 RMS     Displacement     0.000157     0.001200     YES
 Predicted change in Energy=-1.381306D-07
 Optimization completed.
    -- Stationary point found.
                         ----------------------------
                         !   Optimized Parameters   !
                         ! (Angstroms and Degrees)  !
 ------------------------                            -------------------------
 ! Name  Definition              Value          Derivative Info.             !
 -----------------------------------------------------------------------------
 ! R1    R(1,2)                  1.287          -DE/DX =    0.               !
 ! R2    R(1,5)                  1.3551         -DE/DX =    0.               !
 ! R3    R(2,3)                  1.3418         -DE/DX =   -0.0001           !
 ! R4    R(3,4)                  1.007          -DE/DX =    0.               !
 ! R5    R(3,6)                  1.3405         -DE/DX =    0.0002           !
 ! R6    R(5,6)                  1.3123         -DE/DX =    0.0001           !
 ! R7    R(6,7)                  1.0783         -DE/DX =    0.               !
 ! A1    A(2,1,5)              111.3919         -DE/DX =    0.0001           !
 ! A2    A(1,2,3)              105.969          -DE/DX =    0.               !
 ! A3    A(2,3,4)              120.3468         -DE/DX =    0.               !
 ! A4    A(2,3,6)              108.6736         -DE/DX =   -0.0001           !
 ! A5    A(4,3,6)              130.9796         -DE/DX =    0.0001           !
 ! A6    A(1,5,6)              105.6368         -DE/DX =   -0.0001           !
 ! A7    A(3,6,5)              108.3286         -DE/DX =    0.0001           !
 ! A8    A(3,6,7)              124.8033         -DE/DX =    0.               !
 ! A9    A(5,6,7)              126.868          -DE/DX =    0.               !
 ! D1    D(5,1,2,3)              0.             -DE/DX =    0.               !
 ! D2    D(2,1,5,6)              0.             -DE/DX =    0.               !
 ! D3    D(1,2,3,4)            180.             -DE/DX =    0.               !
 ! D4    D(1,2,3,6)              0.             -DE/DX =    0.               !
 ! D5    D(2,3,6,5)              0.             -DE/DX =    0.               !
 ! D6    D(2,3,6,7)            180.             -DE/DX =    0.               !
 ! D7    D(4,3,6,5)            180.             -DE/DX =    0.               !
 ! D8    D(4,3,6,7)              0.             -DE/DX =    0.               !
 ! D9    D(1,5,6,3)              0.             -DE/DX =    0.               !
 ! D10   D(1,5,6,7)            180.             -DE/DX =    0.               !
 -----------------------------------------------------------------------------
 GradGradGradGradGradGradGradGradGradGradGradGradGradGradGradGradGradGrad

 1\1\GINC-PQS3\Freq\RB3PW91\6-31G(2df,p)\C1H2N4\RDJ3\12-May-2004\0\\#N
 GEOM=ALLCHECK GUESS=TCHECK RB3PW91/6-31G(2DF,P) FREQ\\1htz casno=28894
 8 method=16 basis=19\\0,1\N,-0.7220231592,-0.9202765475,0.\N,-1.113831
 1263,0.3056512407,0.\N,0.0025735162,1.0500020882,0.\H,-0.0562010707,2.
 055246663,0.\N,0.6303109083,-1.0069698485,0.\C,1.0641346013,0.23150214
 94,0.\H,2.0921824896,0.5568919102,0.\\Version=x86-Linux-G98RevA.6\Stat
 e=1-A'\HF=-258.1724372\RMSD=2.386e-09\RMSF=9.610e-05\Dipole=0.9637803,
 1.8251465,0.\DipoleDeriv=0.1579371,-0.0819397,0.0000519,-0.1163577,-0.
 1292824,0.0001505,0.0000188,0.000199,-0.149157,-0.2034761,0.3686273,-0
 .0001061,0.2830072,0.1070476,0.0000741,0.000593,-0.0007975,-0.1055748,
 -0.0638085,-0.1520563,-0.0007796,-0.0823968,-0.4696307,0.0001001,-0.00
 0907,0.0006004,-0.1181239,0.1978939,-0.0082495,-0.0001375,-0.0192631,0
 .281197,0.0003375,-0.0003452,-0.0001056,0.3232156,-0.4175777,0.0668649
 ,-0.0001589,-0.0341235,-0.266064,-0.000496,-0.0002117,0.0006978,-0.209
 0948,0.26609,-0.1594471,0.0015303,0.0021928,0.3799889,-0.0000084,0.001
 5192,-0.0004201,0.1031975,0.0629417,-0.0337997,-0.0004,-0.0330585,0.09
 67442,-0.0001577,-0.000667,-0.0001741,0.1555375\Polar=39.5197857,1.059
 367,38.2780544,0.0448641,0.0204066,18.4590526\PG=CS [SG(C1H2N4)]\NImag
 =0\\0.45038822,0.05290724,0.61131998,0.00000258,0.00001754,0.12768756,
 -0.13184949,0.04296975,0.00000498,0.54802235,0.10379450,-0.33643466,-0
 .00002050,-0.09033230,0.52047532,0.00003129,0.00000116,-0.09956699,-0.
 00001566,-0.00002159,0.11821430,-0.02522094,-0.08006232,0.00000166,-0.
 22721078,-0.06252796,0.00001033,0.58151530,-0.00037305,-0.15526808,0.0
 0000137,-0.02709774,-0.11878330,0.00002223,-0.08768925,1.02643623,-0.0
 0003405,0.00001843,0.02750572,0.00002649,0.00000535,-0.07121142,-0.000
 02404,-0.00002255,0.09652302,-0.00909647,-0.01002618,-0.00000036,0.014
 75511,-0.02935631,0.00000079,-0.07203578,0.03475511,-0.00000272,0.0594
 7607,-0.00105863,-0.00013221,0.00000051,0.00531187,-0.01128012,-0.0000
 0213,0.02844228,-0.46579851,0.00000878,-0.02487592,0.48024003,-0.00000
 032,0.00000542,0.00800738,0.00000129,-0.00000415,-0.01197231,-0.000007
 32,0.00000103,-0.00778564,-0.00000125,0.00000367,0.01420535,-0.2052619
 5,0.01244045,-0.00000966,-0.08683569,0.12166868,-0.00002635,0.01854095
 ,-0.03270412,0.00001568,-0.00632069,-0.00119219,-0.00000301,0.41610401
 ,-0.02786431,-0.10008969,0.00000375,0.01422643,-0.04250511,0.00002907,
 0.08406076,-0.10569396,-0.00004143,0.00871271,0.00004783,-0.00000457,0
 .00223419,0.61977362,-0.00003358,-0.00002721,-0.09234218,0.00000534,0.
 00004675,0.03662822,-0.00000937,-0.00001722,0.02194310,0.00000002,0.00
 000096,0.00734669,0.00004005,-0.00002741,0.11197006,-0.07950488,-0.019
 99936,0.00000172,-0.11662367,-0.04381969,-0.00000331,-0.26241882,0.123
 59710,0.00001066,0.01384925,-0.00711192,0.00001208,-0.13532425,-0.0805
 7874,-0.00000368,0.91767459,-0.12272958,-0.01406635,-0.00000248,0.0507
 0134,-0.00558034,-0.00003010,0.09280831,-0.19338512,0.00003037,0.02114
 460,-0.00306493,-0.00000069,-0.07365427,-0.37189864,0.00002392,0.11718
 289,0.67009166,0.00003899,-0.00002056,0.01962030,-0.00002647,-0.000007
 85,0.02163951,0.00004132,0.00001893,-0.06447250,0.00000545,-0.00001667
 ,-0.00888618,-0.00001696,0.00005385,-0.08061106,-0.00003508,-0.0000274
 7,0.14313544,0.00054551,0.00177043,-0.00000091,-0.00025782,0.00057308,
 0.00000290,-0.01316993,-0.01048805,0.00000798,-0.00062749,0.00048451,-
 0.00000148,-0.00090238,-0.00079104,0.00000123,-0.33765223,-0.08545329,
 -0.00000725,0.35206435,-0.00467618,-0.00532900,-0.00000019,0.00422065,
 -0.00589180,0.00000136,0.02496819,0.01249273,0.00000106,-0.00035400,-0
 .00001209,-0.00000072,-0.02879274,0.00036594,0.00000021,-0.08927029,-0
 .08209629,-0.00000023,0.09390437,0.08047052,-0.00000491,0.00000523,0.0
 0908821,0.00000404,0.00000199,0.00626869,-0.00001259,-0.00000379,-0.00
 250228,-0.00000192,0.00000489,-0.00091529,0.00000025,-0.00001327,-0.00
 493483,0.00001762,0.00000645,-0.03042551,-0.00000247,-0.00000149,0.023
 42101\\-0.00007676,-0.00013050,0.,-0.00006086,0.00004509,0.,0.00022001
 ,-0.00020473,0.,-0.00000487,-0.00004578,0.,0.00001289,0.00023005,0.,-0
 .00010849,0.00008504,0.,0.00001809,0.00002084,0.\\\@

 MY GROUP MEETINGS AREN'T VERY STRUCTURED.
     -- PROF. M. S. GORDON, OCT. 5, 1984
 Job cpu time:  0 days  0 hours 46 minutes 37.0 seconds.
 File lengths (MBytes):  RWF=   25 Int=    0 D2E=    0 Chk=    4 Scr=    1
 Normal termination of Gaussian 98.
