 Gaussian 98, Revision A.4,
 Gaussian 98:  x86-Linux-G98RevA.4 11-Sep-1998

 -------------------
 #HF/6-31G* opt freq
 -------------------

 ----------------------------------------
 1H tetrazole c CH-NH-N=N-N= casno=288948
 ----------------------------------------
 Symbolic Z-matrix:
 Charge =  0 Multiplicity = 1

 SCF Done:  E(RHF) =  -256.754076242     A.U. after   15 cycles
 Optimization completed.
    -- Stationary point found.
 Normal termination of Gaussian 98.

 -----------------------------------------------
 #N Geom=AllCheck Guess=TCheck RHF/6-31G(d) Freq
 -----------------------------------------------

 1H tetrazole c CH-NH-N=N-N= casno=288948
 ----------------------------------------
 Redundant internal coordinates taken from checkpointfile:
 /wrk/rdj3/Gau-10319.chk
 Charge =  0 Multiplicity = 1

                         Standard orientation:
 ---------------------------------------------------------------------
 Center     Atomic     Atomic              Coordinates (Angstroms)
 Number     Number      Type              X           Y           Z
 ---------------------------------------------------------------------
    1          7             0       -0.716312   -0.901934    0.000000
    2          7             0       -1.095520    0.291420    0.000000
    3          7             0        0.000000    1.038775    0.000000
    4          1             0       -0.061479    2.030994    0.000000
    5          7             0        0.622151   -0.989495    0.000000
    6          6             0        1.052813    0.225779    0.000000
    7          1             0        2.072370    0.542976    0.000000
 ---------------------------------------------------------------------

 SCF Done:  E(RHF) =  -256.754076242     A.U. after    1 cycles

  The electronic state is 1-A'.
 Alpha  occ. eigenvalues --  -15.68426 -15.66114 -15.64137 -15.59954 -11.33392
 Alpha  occ. eigenvalues --   -1.52162  -1.26658  -1.21014  -0.91425  -0.89657
 Alpha  occ. eigenvalues --   -0.81012  -0.68902  -0.68409  -0.57261  -0.47489
 Alpha  occ. eigenvalues --   -0.46285  -0.45783  -0.42408
 Alpha virt. eigenvalues --    0.15145   0.20119   0.20249   0.25700   0.37656
 Alpha virt. eigenvalues --    0.39686   0.48768   0.51617   0.67281   0.73609
 Alpha virt. eigenvalues --    0.74379   0.82417   0.83553   0.90498   0.91522

  Exact polarizability:  34.273   0.712  34.627   0.000   0.000  15.169
 Approx polarizability:  35.241   0.271  37.688   0.000   0.000  16.765

                     1                      2                      3
                    A"                     A"                     A"
 Frequencies --   623.6184               752.6049               815.3863
 Red. masses --     1.6226                 2.0911                 9.3327
 Frc consts  --     0.3718                 0.6978                 3.6558
 IR Inten    --   131.2060                 7.0654                 8.7902
 Raman Activ --     0.5384                 0.3360                 0.0763

                     4                      5                      6
                    A"                     A'                     A'
 Frequencies --  1010.4123              1092.9711              1114.8760
 Red. masses --     1.3784                 4.8435                 7.2255
 Frc consts  --     0.8291                 3.4090                 5.2914
 IR Inten    --     9.2860                 1.9711                 1.6745
 Raman Activ --     0.4595                 2.2583                 2.6735

                     7                      8                      9
                    A'                     A'                     A'
 Frequencies --  1181.9146              1203.6572              1262.1024
 Red. masses --     3.5667                 2.8650                 2.3055
 Frc consts  --     2.9355                 2.4456                 2.1638
 IR Inten    --    24.0748                35.5561                18.6189
 Raman Activ --     5.0169                 2.4216                 7.5123

                    10                     11                     12
                    A'                     A'                     A'
 Frequencies --  1429.3174              1548.5330              1628.8500
 Red. masses --     2.7359                 5.7613                 3.2612
 Frc consts  --     3.2931                 8.1398                 5.0979
 IR Inten    --     1.1130                37.7358                11.4752
 Raman Activ --    10.2224                16.8122                 7.6953

                    13                     14                     15
                    A'                     A'                     A'
 Frequencies --  1721.4445              3495.8493              3924.7758
 Red. masses --     3.7994                 1.1041                 1.0854
 Frc consts  --     6.6337                 7.9499                 9.8507
 IR Inten    --    25.5387                 0.2919               139.0911
 Raman Activ --     1.5551                63.3942                62.7140

 - Thermochemistry -
 -------------------
 Temperature   298.150 Kelvin.  Pressure   1.00000 Atm.
 Atom  1 has atomic number  7 and mass  14.00307

 Molecular mass:    70.02795 amu.
 Principal axes and moments of inertia in atomic units:
                           1         2         3
     EIGENVALUES --   165.27134 168.12696 333.39830
           X            0.93999   0.34120   0.00000
           Y           -0.34120   0.93999   0.00000
           Z            0.00000   0.00000   1.00000
 THIS MOLECULE IS AN ASYMMETRIC TOP.
 ROTATIONAL SYMMETRY NUMBER  1.
 ROTATIONAL TEMPERATURES (KELVIN)      0.52407     0.51517     0.25979
 ROTATIONAL CONSTANTS (GHZ)           10.91987    10.73439     5.41317
 Zero-point vibrational energy     136412.1 (Joules/Mol)
                                   32.60327 (Kcal/Mol)
 VIBRATIONAL TEMPERATURES:    897.24  1082.82  1173.15  1453.75  1572.53
          (KELVIN)           1604.05  1700.50  1731.78  1815.87  2056.46
                             2227.98  2343.54  2476.76  5029.72  5646.84

 Zero-point correction=                           0.051957 (Hartree/Particle)
 Thermal correction to Energy=                    0.055251
 Thermal correction to Enthalpy=                  0.056196
 Thermal correction to Gibbs Free Energy=         0.025968
 Sum of electronic and zero-point Energies=           -256.702120
 Sum of electronic and thermal Energies=              -256.698825
 Sum of electronic and thermal Enthalpies=            -256.697881
 Sum of electronic and thermal Free Energies=         -256.728109

                     E (Thermal)             CV                S
                      KCAL/MOL        CAL/MOL-KELVIN    CAL/MOL-KELVIN
 TOTAL                   34.671             10.048             63.620
 ELECTRONIC               0.000              0.000              0.000
 TRANSLATIONAL            0.889              2.981             38.656
 ROTATIONAL               0.889              2.981             23.742
 VIBRATIONAL             32.893              4.087              1.222
                       Q            LOG10(Q)             LN(Q)
 TOTAL BOT       0.113724D-11        -11.944149        -27.502421
 TOTAL V=0       0.899643D+12         11.954070         27.525264
 VIB (BOT)       0.143296D-23        -23.843766        -54.902299
 VIB (V=0)       0.113359D+01          0.054454          0.125386
 ELECTRONIC      0.100000D+01          0.000000          0.000000
 TRANSLATIONAL   0.230339D+08          7.362368         16.952478
 ROTATIONAL      0.344547D+05          4.537249         10.447401
 ***** Axes restored to original set *****
 -------------------------------------------------------------------
 Center     Atomic                   Forces (Hartrees/Bohr)
 Number     Number              X              Y              Z
 -------------------------------------------------------------------
    1          7           0.000056440    0.000072230    0.000000000
    2          7          -0.000011832   -0.000120750    0.000000000
    3          7           0.000106681    0.000068382    0.000000000
    4          1          -0.000028541   -0.000006331    0.000000000
    5          7          -0.000001309   -0.000119562    0.000000000
    6          6          -0.000142471    0.000102102    0.000000000
    7          1           0.000021033    0.000003929    0.000000000
 -------------------------------------------------------------------
 Cartesian Forces:  Max     0.000142471 RMS     0.000063812

 GradGradGradGradGradGradGradGradGradGradGradGradGradGradGradGradGradGrad
 Berny optimization.
 Internal  Forces:  Max     0.000081409 RMS     0.000037131
 Search for a local minimum.
 Step number   1 out of a maximum of  36
 All quantities printed in internal units (Hartrees-Bohrs-Radians)
 Second derivative matrix not updated -- analytic derivatives used.
     Eigenvalues ---    0.00926   0.03259   0.08484   0.09099   0.12355
     Eigenvalues ---    0.12788   0.26199   0.31370   0.42699   0.43221
     Eigenvalues ---    0.53809   0.54764   0.59807   0.70627   0.78530
     Eigenvalues --- 1000.000001000.000001000.000001000.000001000.00000
     Eigenvalues --- 1000.000001000.000001000.000001000.000001000.00000
     Eigenvalues --- 1000.00000
 Angle between quadratic step and forces=  25.28 degrees.
 Linear search not attempted -- first point.
 Iteration  1 RMS(Cart)=  0.00009216 RMS(Int)=  0.00000001
 Iteration  2 RMS(Cart)=  0.00000001 RMS(Int)=  0.00000000
 Variable       Old X    -DE/DX   Delta X   Delta X   Delta X     New X
                                 (Linear)    (Quad)   (Total)
    R1        2.36623  -0.00004   0.00000  -0.00013  -0.00013   2.36610
    R2        2.53474   0.00004   0.00000   0.00023   0.00023   2.53497
    R3        2.50608  -0.00007   0.00000  -0.00009  -0.00009   2.50599
    R4        1.87862  -0.00003   0.00000  -0.00006  -0.00006   1.87856
    R5        2.51367   0.00001   0.00000   0.00007   0.00007   2.51374
    R6        2.43647  -0.00004   0.00000  -0.00014  -0.00014   2.43634
    R7        2.01777   0.00001   0.00000   0.00003   0.00003   2.01780
    A1        1.94380   0.00001   0.00000   0.00000   0.00000   1.94379
    A2        1.86179   0.00005   0.00000   0.00015   0.00015   1.86194
    A3        2.10759   0.00003   0.00000   0.00009   0.00009   2.10768
    A4        1.88535  -0.00006   0.00000  -0.00019  -0.00019   1.88516
    A5        2.29025   0.00003   0.00000   0.00010   0.00010   2.29034
    A6        1.84604  -0.00008   0.00000  -0.00019  -0.00019   1.84585
    A7        1.88780   0.00008   0.00000   0.00023   0.00023   1.88803
    A8        2.18241  -0.00006   0.00000  -0.00030  -0.00030   2.18211
    A9        2.21298  -0.00002   0.00000   0.00006   0.00006   2.21305
    D1        0.00000   0.00000   0.00000   0.00000   0.00000   0.00000
    D2        0.00000   0.00000   0.00000   0.00000   0.00000   0.00000
    D3        3.14159   0.00000   0.00000   0.00000   0.00000   3.14159
    D4        0.00000   0.00000   0.00000   0.00000   0.00000   0.00000
    D5        0.00000   0.00000   0.00000   0.00000   0.00000   0.00000
    D6        3.14159   0.00000   0.00000   0.00000   0.00000   3.14159
    D7        3.14159   0.00000   0.00000   0.00000   0.00000   3.14159
    D8        0.00000   0.00000   0.00000   0.00000   0.00000   0.00000
    D9        0.00000   0.00000   0.00000   0.00000   0.00000   0.00000
   D10        3.14159   0.00000   0.00000   0.00000   0.00000   3.14159
         Item               Value     Threshold  Converged?
 Maximum Force            0.000081     0.000450     YES
 RMS     Force            0.000037     0.000300     YES
 Maximum Displacement     0.000234     0.001800     YES
 RMS     Displacement     0.000092     0.001200     YES
 Predicted change in Energy=-5.170113D-08
 Optimization completed.
    -- Stationary point found.
                         ----------------------------
                         !   Optimized Parameters   !
                         ! (Angstroms and Degrees)  !
 ------------------------                            -------------------------
 ! Name  Definition              Value          Derivative Info.             !
 -----------------------------------------------------------------------------
 ! R1    R(1,2)                  1.2522         -DE/DX =    0.               !
 ! R2    R(1,5)                  1.3413         -DE/DX =    0.               !
 ! R3    R(2,3)                  1.3262         -DE/DX =   -0.0001           !
 ! R4    R(3,4)                  0.9941         -DE/DX =    0.               !
 ! R5    R(3,6)                  1.3302         -DE/DX =    0.               !
 ! R6    R(5,6)                  1.2893         -DE/DX =    0.               !
 ! R7    R(6,7)                  1.0678         -DE/DX =    0.               !
 ! A1    A(2,1,5)              111.3714         -DE/DX =    0.               !
 ! A2    A(1,2,3)              106.673          -DE/DX =    0.               !
 ! A3    A(2,3,4)              120.7559         -DE/DX =    0.               !
 ! A4    A(2,3,6)              108.0227         -DE/DX =   -0.0001           !
 ! A5    A(4,3,6)              131.2214         -DE/DX =    0.               !
 ! A6    A(1,5,6)              105.77           -DE/DX =   -0.0001           !
 ! A7    A(3,6,5)              108.1628         -DE/DX =    0.0001           !
 ! A8    A(3,6,7)              125.0426         -DE/DX =   -0.0001           !
 ! A9    A(5,6,7)              126.7945         -DE/DX =    0.               !
 ! D1    D(5,1,2,3)              0.             -DE/DX =    0.               !
 ! D2    D(2,1,5,6)              0.             -DE/DX =    0.               !
 ! D3    D(1,2,3,4)            180.             -DE/DX =    0.               !
 ! D4    D(1,2,3,6)              0.             -DE/DX =    0.               !
 ! D5    D(2,3,6,5)              0.             -DE/DX =    0.               !
 ! D6    D(2,3,6,7)            180.             -DE/DX =    0.               !
 ! D7    D(4,3,6,5)            180.             -DE/DX =    0.               !
 ! D8    D(4,3,6,7)              0.             -DE/DX =    0.               !
 ! D9    D(1,5,6,3)              0.             -DE/DX =    0.               !
 ! D10   D(1,5,6,7)            180.             -DE/DX =    0.               !
 -----------------------------------------------------------------------------
 GradGradGradGradGradGradGradGradGradGradGradGradGradGradGradGradGradGrad

 1\1\GINC-QCHEM4\Freq\RHF\6-31G(d)\C1H2N4\RDJ3\04-Nov-1998\0\\#N GEOM=A
 LLCHECK GUESS=TCHECK RHF/6-31G(D) FREQ\\1H tetrazole c CH-NH-N=N-N= ca
 sno=288948\\0,1\N,-1.0351548911,0.5050173506,0.\N,0.0483812299,1.13258
 4862,0.\N,1.0143462532,0.2239516513,0.\H,1.9699775359,0.4978999213,0.\
 N,-0.8320950586,-0.8208480853,0.\C,0.4474476776,-0.9793778385,0.\H,0.9
 769936641,-1.9065733411,0.\\Version=x86-Linux-G98RevA.4\State=1-A'\HF=
 -256.7540762\RMSD=8.020e-10\RMSF=6.381e-05\Dipole=2.1357635,-0.6054613
 ,0.\DipoleDeriv=-0.1775912,-0.0004557,0.,0.0077515,0.2685807,0.,0.,0.,
 -0.1483763,0.3067099,-0.1797577,0.,-0.2826064,-0.3948394,0.,0.,0.,-0.0
 891168,-0.655533,-0.0819367,0.,0.0612748,-0.0918434,0.,0.,0.,-0.248021
 7,0.3325316,0.0476358,0.,0.0312096,0.2369549,0.,0.,0.,0.3893226,-0.410
 8759,0.2087796,0.,-0.0433349,-0.4790174,0.,0.,0.,-0.2647363,0.5153114,
 -0.0290652,0.,0.1881268,0.3818174,0.,0.,0.,0.2027602,0.0894472,0.03479
 98,0.,0.0375786,0.0783472,0.,0.,0.,0.1581684\Polar=34.9105524,-0.57172
 17,33.9894655,0.,0.,15.1686139\PolarDeriv=-7.3718086,1.7914802,-4.5451
 71,0.,0.,-0.5129865,4.7597879,-2.2190329,-5.0151028,0.,0.,0.1895689,0.
 ,0.,0.,-3.0081703,0.8181943,0.,0.3529856,1.5517493,5.2249959,0.,0.,0.3
 38424,1.6399657,1.9057113,11.6566839,0.,0.,0.2882609,0.,0.,0.,0.754622
 3,3.2901274,0.,1.0990669,-0.5516785,-0.8846997,0.,0.,-0.0879336,0.6983
 955,-0.7228581,-0.6356589,0.,0.,0.4525667,0.,0.,0.,1.9037623,0.6122695
 ,0.,7.6968689,1.8071189,0.947745,0.,0.,0.1085893,1.5375825,1.5929802,0
 .9634108,0.,0.,0.0581421,0.,0.,0.,0.7789885,0.2425341,0.,-3.4795785,-1
 .4818122,-7.2946247,0.,0.,-0.1330026,-4.8814112,-3.4821242,-0.1825079,
 0.,0.,-0.0355258,0.,0.,0.,-2.9643099,-1.604457,0.,-0.5746334,-0.804367
 2,4.0801505,0.,0.,0.0452161,-2.1800405,0.3979307,-0.0771089,0.,0.,-0.5
 153508,0.,0.,0.,2.1008218,-2.3279065,0.,2.277099,-2.3124905,2.471604,0
 .,0.,0.2416933,-1.5742799,2.527393,-6.7097162,0.,0.,-0.437662,0.,0.,0.
 ,0.4342854,-1.0307617,0.\HyperPolar=38.7148768,-6.7677447,19.0198291,-
 17.725881,0.,0.,0.,5.1124298,-3.68272,0.\PG=CS [SG(C1H2N4)]\NImag=0\\0
 .82606125,0.02565147,0.55535786,0.,0.,0.15179722,-0.43735412,-0.200065
 73,0.,0.66783237,-0.14468506,-0.24592426,0.,0.13818576,0.72950818,0.,0
 .,-0.11931673,0.,0.,0.14103326,-0.19475852,-0.04695181,0.,-0.18500613,
 0.05632833,0.,1.15154047,0.05623817,-0.01984839,0.,0.10807840,-0.25200
 392,0.,0.18023879,0.77167242,0.,0.,0.03410889,0.,0.,-0.08301457,0.,0.,
 0.10893415,-0.00201457,0.00547791,0.,-0.01595607,-0.01362794,0.,-0.497
 24848,-0.11832985,0.,0.51020172,0.01331802,-0.00661342,0.,0.02664443,0
 .02537891,0.,-0.13028042,-0.13096558,0.,0.12518033,0.10908227,0.,0.,0.
 00880902,0.,0.,-0.01415921,0.,0.,-0.00737556,0.,0.,0.01563868,-0.14352
 533,0.04813747,0.,-0.00437510,0.00345339,0.,-0.11031902,-0.13560042,0.
 ,0.00368641,-0.00753491,0.,0.75778526,0.01706425,-0.24807969,0.,-0.138
 51733,-0.12658240,0.,0.01962849,0.00498391,0.,0.00089586,-0.00884103,0
 .,0.04883523,0.52892647,0.,0.,-0.10849034,0.,0.,0.04366507,0.,0.,0.025
 72567,0.,0.,0.00901368,0.,0.,0.13260823,-0.04157179,0.16468231,0.,-0.0
 2035024,-0.03455793,0.,-0.18393620,-0.06891234,0.,0.00155403,-0.027953
 97,0.,-0.49670042,0.01957455,0.,0.89380063,0.03471068,-0.03682450,0.,0
 .06912588,-0.12805210,0.,-0.09728410,-0.35631243,0.,0.00082988,0.01269
 477,0.,0.04246778,-0.15875733,0.,-0.19691269,0.99591142,0.,0.,0.022057
 07,0.,0.,0.02446778,0.,0.,-0.07795774,0.,0.,-0.01065975,0.,0.,-0.09864
 794,0.,0.,0.18466275,-0.00683691,0.00306837,0.,-0.00479071,-0.00509656
 ,0.,0.01972787,-0.02171274,0.,-0.00022304,0.00062652,0.,-0.00655180,0.
 03251895,0.,-0.15279600,0.14706256,0.,0.15147059,-0.00229754,0.0019323
 9,0.,-0.00345141,-0.00232441,0.,0.01832071,-0.01752601,0.,-0.00042618,
 -0.00073591,0.,0.00024146,0.00835008,0.,0.14408007,-0.32865982,0.,-0.1
 5646710,0.33896369,0.,0.,0.01103486,0.,0.,0.00732440,0.,0.,-0.00042084
 ,0.,0.,-0.00126686,0.,0.,-0.00387437,0.,0.,-0.04392216,0.,0.,0.0311249
 6\\-0.00005644,-0.00007223,0.,0.00001183,0.00012075,0.,-0.00010668,-0.
 00006838,0.,0.00002854,0.00000633,0.,0.00000131,0.00011956,0.,0.000142
 47,-0.00010210,0.,-0.00002103,-0.00000393,0.\\\@

 THE ... SCIENTISTS WERE WRONG ... THE MOST PERSISTENT PRINCIPLES
 OF THE UNIVERSE WERE ACCIDENT AND ERROR.

                          -- FRANK HERBERT IN DUNE
 Job cpu time:  0 days  0 hours  7 minutes  9.3 seconds.
 File lengths (MBytes):  RWF=   10 Int=    0 D2E=    0 Chk=    3 Scr=    1
 Normal termination of Gaussian 98.
