 Gaussian 03, Revision C.02,
 Gaussian 03:  IA32L-G03RevC.02 12-Jun-2004

 ------------------------
 #HF/aug-cc-pVTZ opt freq
 ------------------------

 ------------------------------------------------
 1htz 1H-Tetrazole casno=288948 method=1 basis=18
 ------------------------------------------------
 Symbolic Z-matrix:
 Charge =  0 Multiplicity = 1

 SCF Done:  E(RHF) =  -256.852319568     A.U. after   14 cycles
 Optimization completed.
    -- Stationary point found.
 Normal termination of Gaussian 03 at Wed Jul 13 19:44:44 2005.

 ------------------------------------------------------------------
 #N Geom=AllCheck Guess=Read SCRF=Check GenChk RHF/Aug-CC-pVTZ Freq
 ------------------------------------------------------------------

 1htz 1H-Tetrazole casno=288948 method=1 basis=18
 ------------------------------------------------
 Redundant internal coordinates taken from checkpoint file:
 /scratch/Gau-25655.chk
 Charge =  0 Multiplicity = 1

                         Standard orientation:
 ---------------------------------------------------------------------
 Center     Atomic     Atomic              Coordinates (Angstroms)
 Number     Number      Type              X           Y           Z
 ---------------------------------------------------------------------
    1          7             0       -0.716204   -0.898535    0.000000
    2          7             0       -1.091900    0.290054    0.000000
    3          7             0        0.000000    1.036471    0.000000
    4          1             0       -0.057610    2.024792    0.000000
    5          7             0        0.620993   -0.987277    0.000000
    6          6             0        1.049815    0.224832    0.000000
    7          1             0        2.068499    0.541230    0.000000
 ---------------------------------------------------------------------

 SCF Done:  E(RHF) =  -256.852319568     A.U. after    1 cycles

 The electronic state is 1-A'.
 Alpha  occ. eigenvalues --  -15.67815 -15.65756 -15.63979 -15.59706 -11.33008
 Alpha  occ. eigenvalues --   -1.52484  -1.26878  -1.21282  -0.91659  -0.89982
 Alpha  occ. eigenvalues --   -0.81275  -0.69488  -0.68649  -0.57654  -0.47844
 Alpha  occ. eigenvalues --   -0.46767  -0.46214  -0.42846
 Alpha virt. eigenvalues --    0.01493   0.03480   0.06762   0.07171   0.09376
 Alpha virt. eigenvalues --    0.10575   0.11541   0.12474   0.12904   0.13671
 Alpha virt. eigenvalues --    0.14036   0.15040   0.16482   0.17551   0.17603

 Mulliken atomic charges:
              1
     1  N   -0.165552
     2  N   -0.240021
     3  N    0.169444
     4  H    0.161300
     5  N   -0.283622
     6  C   -0.280504
     7  H    0.638955
 Sum of Mulliken charges=   0.00000

 Dipole moment (field-independent basis, Debye):
    X=     2.5972    Y=     4.8578    Z=     0.0000  Tot=     5.5086
 Quadrupole moment (field-independent basis, Debye-Ang):
   XX=   -28.9002   YY=   -26.7601   ZZ=   -28.7282
   XY=     2.0158   XZ=     0.0000   YZ=     0.0000

  Exact polarizability:  40.761   0.312  41.080   0.000   0.000  24.923
 Approx polarizability:  40.050   0.295  42.027   0.000   0.000  26.235

                     1                      2                      3
                    A"                     A"                     A"
 Frequencies --   624.9963               749.1468               817.4971
 Red. masses --     1.5457                 2.1661                 9.6544
 Frc consts  --     0.3557                 0.7162                 3.8014
 IR Inten    --   107.2121                 4.1679                 6.9713
 Raman Activ --     0.0836                 0.1251                 0.0477

                     4                      5                      6
                    A"                     A'                     A'
 Frequencies --  1017.8369              1084.9313              1107.5710
 Red. masses --     1.3987                 4.9609                 8.1149
 Frc consts  --     0.8538                 3.4404                 5.8651
 IR Inten    --    10.9334                 1.5499                 1.8616
 Raman Activ --     0.3633                 1.3251                 1.3087

                     7                      8                      9
                    A'                     A'                     A'
 Frequencies --  1163.7150              1188.0950              1250.2252
 Red. masses --     3.6515                 2.6657                 2.4397
 Frc consts  --     2.9135                 2.2170                 2.2468
 IR Inten    --    23.2060                30.0504                22.7204
 Raman Activ --     6.1272                 1.4770                 3.6989

                    10                     11                     12
                    A'                     A'                     A'
 Frequencies --  1415.8878              1528.7286              1613.3874
 Red. masses --     2.6958                 5.8217                 3.1630
 Frc consts  --     3.1842                 8.0160                 4.8510
 IR Inten    --     1.3795                29.2978                11.6512
 Raman Activ --    15.9119                28.1510                 8.0610

                    13                     14                     15
                    A'                     A'                     A'
 Frequencies --  1703.3902              3434.4850              3906.5076
 Red. masses --     3.6419                 1.1046                 1.0852
 Frc consts  --     6.2259                 7.6771                 9.7570
 IR Inten    --    24.7826                 0.5327               136.2225
 Raman Activ --     1.8533                62.7411                67.8647

 - Thermochemistry -
 -------------------
 Temperature   298.150 Kelvin.  Pressure   1.00000 Atm.
 Atom  1 has atomic number  7 and mass  14.00307

 Molecular mass:    70.02795 amu.
 Principal axes and moments of inertia in atomic units:
                           1         2         3
     EIGENVALUES --   164.40599 167.26955 331.67554
           X            0.94982   0.31278   0.00000
           Y           -0.31278   0.94982   0.00000
           Z            0.00000   0.00000   1.00000
 This molecule is an asymmetric top.
 Rotational symmetry number  1.
 Rotational temperatures (Kelvin)      0.52683     0.51781     0.26114
 Rotational constants (GHZ):          10.97734    10.78942     5.44129
 Zero-point vibrational energy     135216.3 (Joules/Mol)
                                   32.31747 (Kcal/Mol)
 Vibrational temperatures:    899.23  1077.85  1176.19  1464.44  1560.97
          (Kelvin)           1593.55  1674.32  1709.40  1798.79  2037.14
                             2199.50  2321.30  2450.80  4941.45  5620.59

 Zero-point correction=                           0.051501 (Hartree/Particle)
 Thermal correction to Energy=                    0.054801
 Thermal correction to Enthalpy=                  0.055745
 Thermal correction to Gibbs Free Energy=         0.025519
 Sum of electronic and zero-point Energies=           -256.800818
 Sum of electronic and thermal Energies=              -256.797519
 Sum of electronic and thermal Enthalpies=            -256.796575
 Sum of electronic and thermal Free Energies=         -256.826801

                     E (Thermal)             CV                S
                      KCal/Mol        Cal/Mol-Kelvin    Cal/Mol-Kelvin
 Total                   34.388             10.097             63.616
 Electronic               0.000              0.000              0.000
 Translational            0.889              2.981             38.656
 Rotational               0.889              2.981             23.726
 Vibrational             32.610              4.136              1.233

 Optimization completed.
    -- Stationary point found.
 Normal termination of Gaussian 03 at Thu Jul 14 01:27:44 2005.
