 Gaussian 98, Revision A.6,
 Gaussian 98:  IBM-RS6000-G98RevA.6 19-Oct-1998

 ----------------------
 #HF/CEP-121G* opt freq
 ----------------------

 ----------------------------------------
 1H tetrazole c CH-NH-N=N-N= casno=288948
 ----------------------------------------
 Symbolic Z-matrix:
 Charge =  0 Multiplicity = 1

 SCF Done:  E(RHF) =  -45.3090795290     A.U. after   15 cycles
 SCF Done:  E(RHF) =  -45.3094772309     A.U. after   12 cycles
 SCF Done:  E(RHF) =  -45.3094800085     A.U. after   10 cycles
 SCF Done:  E(RHF) =  -45.3094857147     A.U. after   10 cycles
 Optimization completed.
    -- Stationary point found.
 Normal termination of Gaussian 98.

 --------------------------------------------------
 #N Geom=AllCheck Guess=TCheck RHF/CEP-121G(d) Freq
 --------------------------------------------------

 1H tetrazole c CH-NH-N=N-N= casno=288948
 ----------------------------------------
 Redundant internal coordinates taken from checkpointfile:
 /wrk/rdj3/Gau-11046.chk
 Charge =  0 Multiplicity = 1

                         Standard orientation:
 ---------------------------------------------------------------------
 Center     Atomic     Atomic              Coordinates (Angstroms)
 Number     Number      Type              X           Y           Z
 ---------------------------------------------------------------------
    1          7             0       -0.740241   -0.926109    0.000000
    2          7             0       -1.110610    0.278134    0.000000
    3          7             0        0.000000    1.019782    0.000000
    4          1             0       -0.052175    2.014420    0.000000
    5          7             0        0.606373   -1.026735    0.000000
    6          6             0        1.049788    0.190584    0.000000
    7          1             0        2.075414    0.497881    0.000000
 ---------------------------------------------------------------------

 SCF Done:  E(RHF) =  -45.3094857147     A.U. after    1 cycles

  The electronic state is 1-A'.
 Alpha  occ. eigenvalues --   -1.52585  -1.27315  -1.21747  -0.91905  -0.89901
 Alpha  occ. eigenvalues --   -0.81060  -0.68731  -0.68548  -0.57327  -0.47597
 Alpha  occ. eigenvalues --   -0.46647  -0.45886  -0.42610
 Alpha virt. eigenvalues --    0.11947   0.13672   0.16232   0.18427   0.26229
 Alpha virt. eigenvalues --    0.27909   0.35494   0.42485   0.43914   0.50306
 Alpha virt. eigenvalues --    0.53128   0.57557   0.60522   0.62009   0.64373

  Exact polarizability:  37.164   0.605  37.251   0.000   0.000  19.467
 Approx polarizability:  37.148   0.343  39.298   0.000   0.000  20.831

                     1                      2                      3
                    A"                     A"                     A"
 Frequencies --   601.6214               741.8325               799.8287
 Red. masses --     1.6824                 2.0296                 8.8775
 Frc consts  --     0.3588                 0.6581                 3.3461
 IR Inten    --   117.3102                 8.4267                 9.8673
 Raman Activ --     0.3834                 0.1807                 0.0969

                     4                      5                      6
                    A"                     A'                     A'
 Frequencies --   994.3142              1078.1436              1100.7981
 Red. masses --     1.3735                 4.7820                 7.3774
 Frc consts  --     0.8001                 3.2750                 5.2670
 IR Inten    --    15.0122                 1.8343                 1.5756
 Raman Activ --     0.0880                 1.8817                 2.4517

                     7                      8                      9
                    A'                     A'                     A'
 Frequencies --  1169.4194              1189.4835              1247.7348
 Red. masses --     3.4497                 2.6888                 2.4481
 Frc consts  --     2.7796                 2.2415                 2.2455
 IR Inten    --    27.0982                31.7809                22.9122
 Raman Activ --     5.2641                 2.5697                 7.1918

                    10                     11                     12
                    A'                     A'                     A'
 Frequencies --  1409.3844              1524.1502              1599.7148
 Red. masses --     2.9696                 5.6141                 3.2018
 Frc consts  --     3.4755                 7.6839                 4.8276
 IR Inten    --     2.3898                36.2259                13.2393
 Raman Activ --    14.4506                20.4950                 9.3163

                    13                     14                     15
                    A'                     A'                     A'
 Frequencies --  1694.8201              3466.6224              3913.2620
 Red. masses --     3.6344                 1.1042                 1.0853
 Frc consts  --     6.1508                 7.8183                 9.7924
 IR Inten    --    24.3200                 0.1804               123.1131
 Raman Activ --     2.1676                64.1017                66.3287

 - Thermochemistry -
 -------------------
 Temperature   298.150 Kelvin.  Pressure   1.00000 Atm.
 Atom  1 has atomic number  7 and mass  14.00307

 Molecular mass:    70.02795 amu.
 Principal axes and moments of inertia in atomic units:
                           1         2         3
     EIGENVALUES --   167.18074 170.19168 337.37242
           X            0.93423   0.35666   0.00000
           Y           -0.35666   0.93423   0.00000
           Z            0.00000   0.00000   1.00000
 THIS MOLECULE IS AN ASYMMETRIC TOP.
 ROTATIONAL SYMMETRY NUMBER  1.
 ROTATIONAL TEMPERATURES (KELVIN)      0.51808     0.50892     0.25673
 ROTATIONAL CONSTANTS (GHZ)           10.79515    10.60417     5.34940
 Zero-point vibrational energy     134766.1 (Joules/Mol)
                                   32.20987 (Kcal/Mol)
 WARNING-- EXPLICIT CONSIDERATION OF   1 DEGREES OF FREEDOM AS
           VIBRATIONS MAY CAUSE SIGNIFICANT ERROR
 VIBRATIONAL TEMPERATURES:    865.59  1067.33  1150.77  1430.59  1551.20
          (KELVIN)           1583.79  1682.52  1711.39  1795.20  2027.78
                             2192.90  2301.62  2438.45  4987.67  5630.28

 Zero-point correction=                           0.051330 (Hartree/Particle)
 Thermal correction to Energy=                    0.054654
 Thermal correction to Enthalpy=                  0.055598
 Thermal correction to Gibbs Free Energy=         0.025313
 Sum of electronic and zero-point Energies=            -45.258156
 Sum of electronic and thermal Energies=               -45.254832
 Sum of electronic and thermal Enthalpies=             -45.253888
 Sum of electronic and thermal Free Energies=          -45.284172

                     E (Thermal)             CV                S
                      KCAL/MOL        CAL/MOL-KELVIN    CAL/MOL-KELVIN
 TOTAL                   34.296             10.229             63.739
 ELECTRONIC               0.000              0.000              0.000
 TRANSLATIONAL            0.889              2.981             38.656
 ROTATIONAL               0.889              2.981             23.777
 VIBRATIONAL             32.518              4.267              1.305
 VIBRATION  1             0.960              1.028              0.447
                       Q            LOG10(Q)             LN(Q)
 TOTAL BOT       0.227357D-11        -11.643291        -26.809668
 TOTAL V=0       0.925915D+12         11.966571         27.554048
 VIB (BOT)       0.281433D-23        -23.550625        -54.227318
 VIB (BOT)  1    0.247783D+00         -0.605928         -1.395200
 VIB (V=0)       0.114614D+01          0.059237          0.136398
 VIB (V=0)  1    0.105803D+01          0.024498          0.056408
 ELECTRONIC      0.100000D+01          0.000000          0.000000
 TRANSLATIONAL   0.230339D+08          7.362368         16.952478
 ROTATIONAL      0.350725D+05          4.544966         10.465172
 ***** Axes restored to original set *****
 -------------------------------------------------------------------
 Center     Atomic                   Forces (Hartrees/Bohr)
 Number     Number              X              Y              Z
 -------------------------------------------------------------------
    1          7           0.000027565    0.000328620    0.000000000
    2          7          -0.000193809   -0.000252156    0.000000000
    3          7           0.000230276    0.000172170    0.000000000
    4          1          -0.000007393    0.000018149    0.000000000
    5          7           0.000085495   -0.000264082    0.000000000
    6          6          -0.000190139    0.000023725    0.000000000
    7          1           0.000048005   -0.000026426    0.000000000
 -------------------------------------------------------------------
 Cartesian Forces:  Max     0.000328620 RMS     0.000139679

 GradGradGradGradGradGradGradGradGradGradGradGradGradGradGradGradGradGrad
 Berny optimization.
 Internal  Forces:  Max     0.000190512 RMS     0.000073231
 Search for a local minimum.
 Step number   1 out of a maximum of  36
 All quantities printed in internal units (Hartrees-Bohrs-Radians)
 Second derivative matrix not updated -- analytic derivatives used.
     Eigenvalues ---    0.00876   0.03177   0.08233   0.08865   0.12087
     Eigenvalues ---    0.12526   0.25775   0.30753   0.41977   0.42309
     Eigenvalues ---    0.52672   0.54365   0.58199   0.68826   0.76082
     Eigenvalues --- 1000.000001000.000001000.000001000.000001000.00000
     Eigenvalues --- 1000.000001000.000001000.000001000.000001000.00000
     Eigenvalues --- 1000.00000
 Angle between quadratic step and forces=  16.36 degrees.
 Linear search not attempted -- first point.
 Iteration  1 RMS(Cart)=  0.00017380 RMS(Int)=  0.00000003
 Iteration  2 RMS(Cart)=  0.00000002 RMS(Int)=  0.00000001
 Variable       Old X    -DE/DX   Delta X   Delta X   Delta X     New X
                                 (Linear)    (Quad)   (Total)
    R1        2.38088  -0.00019   0.00000  -0.00053  -0.00053   2.38035
    R2        2.55183   0.00014   0.00000   0.00060   0.00060   2.55242
    R3        2.52368   0.00011   0.00000   0.00046   0.00046   2.52415
    R4        1.88218   0.00001   0.00000   0.00000   0.00000   1.88218
    R5        2.52802   0.00008   0.00000   0.00016   0.00016   2.52818
    R6        2.44826   0.00003   0.00000  -0.00009  -0.00009   2.44817
    R7        2.02328   0.00005   0.00000   0.00015   0.00015   2.02343
    A1        1.94375   0.00008   0.00000   0.00017   0.00017   1.94392
    A2        1.86120   0.00006   0.00000   0.00020   0.00020   1.86140
    A3        2.10716   0.00004   0.00000   0.00007   0.00007   2.10723
    A4        1.88428  -0.00012   0.00000  -0.00042  -0.00042   1.88386
    A5        2.29174   0.00007   0.00000   0.00035   0.00035   2.29209
    A6        1.84553  -0.00012   0.00000  -0.00038  -0.00038   1.84515
    A7        1.89001   0.00010   0.00000   0.00043   0.00043   1.89045
    A8        2.18195  -0.00004   0.00000  -0.00017  -0.00017   2.18178
    A9        2.21122  -0.00006   0.00000  -0.00026  -0.00026   2.21096
    D1        0.00000   0.00000   0.00000   0.00000   0.00000   0.00000
    D2        0.00000   0.00000   0.00000   0.00000   0.00000   0.00000
    D3        3.14159   0.00000   0.00000   0.00000   0.00000   3.14159
    D4        0.00000   0.00000   0.00000   0.00000   0.00000   0.00000
    D5        0.00000   0.00000   0.00000   0.00000   0.00000   0.00000
    D6        3.14159   0.00000   0.00000   0.00000   0.00000   3.14159
    D7        3.14159   0.00000   0.00000   0.00000   0.00000   3.14159
    D8        0.00000   0.00000   0.00000   0.00000   0.00000   0.00000
    D9        0.00000   0.00000   0.00000   0.00000   0.00000   0.00000
   D10        3.14159   0.00000   0.00000   0.00000   0.00000   3.14159
         Item               Value     Threshold  Converged?
 Maximum Force            0.000191     0.000450     YES
 RMS     Force            0.000073     0.000300     YES
 Maximum Displacement     0.000447     0.001800     YES
 RMS     Displacement     0.000174     0.001200     YES
 Predicted change in Energy=-2.349823D-07
 Optimization completed.
    -- Stationary point found.
                         ----------------------------
                         !   Optimized Parameters   !
                         ! (Angstroms and Degrees)  !
 ------------------------                            -------------------------
 ! Name  Definition              Value          Derivative Info.             !
 -----------------------------------------------------------------------------
 ! R1    R(1,2)                  1.2599         -DE/DX =   -0.0002           !
 ! R2    R(1,5)                  1.3504         -DE/DX =    0.0001           !
 ! R3    R(2,3)                  1.3355         -DE/DX =    0.0001           !
 ! R4    R(3,4)                  0.996          -DE/DX =    0.               !
 ! R5    R(3,6)                  1.3378         -DE/DX =    0.0001           !
 ! R6    R(5,6)                  1.2956         -DE/DX =    0.               !
 ! R7    R(6,7)                  1.0707         -DE/DX =    0.0001           !
 ! A1    A(2,1,5)              111.3689         -DE/DX =    0.0001           !
 ! A2    A(1,2,3)              106.6389         -DE/DX =    0.0001           !
 ! A3    A(2,3,4)              120.7316         -DE/DX =    0.               !
 ! A4    A(2,3,6)              107.9614         -DE/DX =   -0.0001           !
 ! A5    A(4,3,6)              131.307          -DE/DX =    0.0001           !
 ! A6    A(1,5,6)              105.7409         -DE/DX =   -0.0001           !
 ! A7    A(3,6,5)              108.2898         -DE/DX =    0.0001           !
 ! A8    A(3,6,7)              125.0166         -DE/DX =    0.               !
 ! A9    A(5,6,7)              126.6936         -DE/DX =   -0.0001           !
 ! D1    D(5,1,2,3)              0.             -DE/DX =    0.               !
 ! D2    D(2,1,5,6)              0.             -DE/DX =    0.               !
 ! D3    D(1,2,3,4)            180.             -DE/DX =    0.               !
 ! D4    D(1,2,3,6)              0.             -DE/DX =    0.               !
 ! D5    D(2,3,6,5)              0.             -DE/DX =    0.               !
 ! D6    D(2,3,6,7)            180.             -DE/DX =    0.               !
 ! D7    D(4,3,6,5)            180.             -DE/DX =    0.               !
 ! D8    D(4,3,6,7)              0.             -DE/DX =    0.               !
 ! D9    D(1,5,6,3)              0.             -DE/DX =    0.               !
 ! D10   D(1,5,6,7)            180.             -DE/DX =    0.               !
 -----------------------------------------------------------------------------
 GradGradGradGradGradGradGradGradGradGradGradGradGradGradGradGradGradGrad

 1\1\GINC-INDIUM\Freq\RHF\CEP-121G(d)\C1H2N4\RDJ3\06-Sep-2000\0\\#N GEO
 M=ALLCHECK GUESS=TCHECK RHF/CEP-121G(D) FREQ\\1H tetrazole c CH-NH-N=N
 -N= casno=288948\\0,1\N,-1.1544633051,-0.269904965,0.\N,-0.7006913957,
 0.9054522053,0.\N,0.6307197278,0.8013411044,0.\H,1.2048894126,1.615194
 2484,0.\N,-0.1585346338,-1.181837135,0.\C,0.9427933818,-0.49951773,0.\
 H,1.9387850937,-0.8923793767,0.\\Version=IBM-RS6000-G98RevA.6\State=1-
 A'\HF=-45.3094857\RMSD=5.091e-10\RMSF=1.397e-04\Dipole=2.0651925,0.891
 9408,0.\DipoleDeriv=0.0038354,-0.2404846,0.,-0.218675,0.1272587,0.,0.,
 0.,-0.1510388,0.2800457,0.3365921,0.,0.2546657,-0.365671,0.,0.,0.,-0.0
 967179,-0.4267505,-0.3482624,0.,-0.223282,-0.3327931,0.,0.,0.,-0.20231
 26,0.2416361,0.0612987,0.,0.0390266,0.2903293,0.,0.,0.,0.3789384,-0.52
 66293,0.1790518,0.,-0.0743211,-0.3892541,0.,0.,0.,-0.2540806,0.3910539
 ,-0.004055,0.,0.2012811,0.5536664,0.,0.,0.,0.1496574,0.0368087,0.01585
 94,0.,0.0213048,0.1164639,0.,0.,0.,0.1755541\Polar=37.7847337,0.184088
 8,36.629787,0.,0.,19.4669202\PolarDeriv=-8.3125389,-3.4187301,-1.73462
 18,0.,0.,-1.0032235,-3.1111009,3.1209483,-5.8064592,0.,0.,-0.3252741,0
 .,0.,0.,-2.9146195,-1.338201,0.,-1.5634764,1.0064257,-1.8954647,0.,0.,
 0.2897474,3.8439167,-4.9193912,11.2861313,0.,0.,0.6992881,0.,0.,0.,-1.
 2642202,3.0769793,0.,-0.2289902,0.3063551,0.1467889,0.,0.,-0.4819964,1
 .5803875,1.1319719,-1.4028197,0.,0.,1.7974703,0.,0.,0.,0.8976052,1.499
 648,0.,2.8654291,2.491548,2.4183591,0.,0.,-0.0339067,2.0720018,2.86433
 54,5.6930019,0.,0.,0.1232894,0.,0.,0.,0.3795791,0.5477079,0.,-3.593651
 3,3.4293096,-2.8446386,0.,0.,-1.3272866,-2.4399195,-1.4325263,-8.96760
 03,0.,0.,-1.2971575,0.,0.,0.,-1.1072996,-2.6966165,0.,3.2961899,-1.499
 971,2.3665371,0.,0.,2.109555,0.0545576,-2.7357541,0.8663402,0.,0.,-0.7
 718344,0.,0.,0.,3.5430166,-0.7907467,0.,7.5370378,-2.3149373,1.54304,0
 .,0.,0.4471108,-1.9998432,1.970416,-1.6685942,0.,0.,-0.2257817,0.,0.,0
 .,0.4659383,-0.2987711,0.\HyperPolar=51.5589351,-0.6967313,9.1634803,1
 8.0160038,0.,0.,0.,17.032456,-2.9351196,0.\PG=CS [SG(C1H2N4)]\NImag=0\
 \0.68229276,0.13046914,0.66730749,0.,0.,0.14611354,-0.19093586,-0.1519
 4945,0.,0.54685151,-0.09834328,-0.47327505,0.,-0.00285058,0.81410895,0
 .,0.,-0.11450406,0.,0.,0.13461317,-0.12566593,-0.13279959,0.,-0.289416
 39,0.02525376,0.,0.81390236,-0.03276328,-0.08189892,0.,0.07477102,-0.1
 4269237,0.,0.22703267,1.06988578,0.,0.,0.03189827,0.,0.,-0.07767703,0.
 ,0.,0.10128417,-0.01319627,0.00040230,0.,-0.00491637,-0.03831936,0.,-0
 .23088503,-0.20015505,0.,0.22870368,0.00826392,0.00416721,0.,0.0012112
 5,0.01558247,0.,-0.21204608,-0.39269369,0.,0.22233984,0.38542830,0.,0.
 ,0.00881392,0.,0.,-0.01435016,0.,0.,-0.00624944,0.,0.,0.01505370,-0.21
 508972,0.07323920,0.,0.01451176,0.11322402,0.,-0.00786640,-0.14360961,
 0.,0.00207344,0.00118858,0.,0.59897806,0.04369011,-0.17380907,0.,-0.02
 578734,-0.13926140,0.,0.00877721,-0.09415373,0.,0.00954881,-0.00718328
 ,0.,0.11213812,0.64924220,0.,0.,-0.10447521,0.,0.,0.04191320,0.,0.,0.0
 2482580,0.,0.,0.00887577,0.,0.,0.12801517,-0.13362384,0.08233668,0.,-0
 .07661892,0.00404835,0.,-0.16681263,0.07784374,0.,0.01863732,-0.021595
 35,0.,-0.37708244,-0.16151829,0.,1.09443484,-0.04446066,0.05863934,0.,
 0.10601536,-0.06710500,0.,0.04670016,-0.35395238,0.,0.00642433,-0.0050
 5385,0.,-0.13657548,-0.25272501,0.,-0.09537470,0.73513665,0.,0.,0.0212
 8957,0.,0.,0.02310413,0.,0.,-0.07378398,0.,0.,-0.01092291,0.,0.,-0.095
 27417,0.,0.,0.17812756,-0.00378115,-0.00169828,0.,0.00052428,-0.003012
 90,0.,0.00674401,-0.00311948,0.,-0.00041677,0.00063784,0.,-0.01552471,
 0.01315138,0.,-0.35893432,0.11727099,0.,0.37138867,-0.00685595,-0.0011
 3101,0.,-0.00141026,-0.00735761,0.,0.03708187,-0.00449469,0.,-0.000240
 88,-0.00024715,0.,-0.01960483,0.01789028,0.,0.11425958,-0.11493974,0.,
 -0.12322954,0.11027991,0.,0.,0.01086397,0.,0.,0.00690077,0.,0.,-0.0002
 9779,0.,0.,-0.00122088,0.,0.,-0.00388055,0.,0.,-0.04254020,0.,0.,0.030
 17469\\-0.00002756,-0.00032862,0.,0.00019381,0.00025216,0.,-0.00023028
 ,-0.00017217,0.,0.00000739,-0.00001815,0.,-0.00008550,0.00026408,0.,0.
 00019014,-0.00002373,0.,-0.00004801,0.00002643,0.\\\@

 Discoveries are often made by not following instructions,
 by going off the main road, by trying the untried.
 -- Frank Tyger
 Job cpu time:  0 days  0 hours  4 minutes 44.4 seconds.
 File lengths (MBytes):  RWF=   22 Int=    0 D2E=    0 Chk=    8 Scr=    1
 Normal termination of Gaussian 98.
