 Gaussian 98, Revision A.6,
 Gaussian 98:  IBM-RS6000-G98RevA.6 19-Oct-1998

 --------------------
 #HF/CEP-31G opt freq
 --------------------

 ----------------------------------------
 1H tetrazole c CH-NH-N=N-N= casno=288948
 ----------------------------------------
 Symbolic Z-matrix:
 Charge =  0 Multiplicity = 1

 SCF Done:  E(RHF) =  -45.1355022505     A.U. after   15 cycles
 SCF Done:  E(RHF) =  -45.1434009326     A.U. after   14 cycles
 SCF Done:  E(RHF) =  -45.1433249759     A.U. after   12 cycles
 SCF Done:  E(RHF) =  -45.1436833371     A.U. after   12 cycles
 SCF Done:  E(RHF) =  -45.1436854333     A.U. after   11 cycles
 Optimization completed.
    -- Stationary point found.
 Normal termination of Gaussian 98.

 ----------------------------------------------
 #N Geom=AllCheck Guess=TCheck RHF/CEP-31G Freq
 ----------------------------------------------

 1H tetrazole c CH-NH-N=N-N= casno=288948
 ----------------------------------------
 Redundant internal coordinates taken from checkpointfile:
 /wrk/rdj3/Gau-15366.chk
 Charge =  0 Multiplicity = 1

                         Standard orientation:
 ---------------------------------------------------------------------
 Center     Atomic     Atomic              Coordinates (Angstroms)
 Number     Number      Type              X           Y           Z
 ---------------------------------------------------------------------
    1          7             0       -0.753749   -0.953182    0.000000
    2          7             0       -1.138853    0.280922    0.000000
    3          7             0        0.000000    1.038744    0.000000
    4          1             0       -0.049374    2.032533    0.000000
    5          7             0        0.626232   -1.038291    0.000000
    6          6             0        1.071342    0.205365    0.000000
    7          1             0        2.095857    0.505042    0.000000
 ---------------------------------------------------------------------

 SCF Done:  E(RHF) =  -45.1436854333     A.U. after    1 cycles

  The electronic state is 1-A'.
 Alpha  occ. eigenvalues --   -1.54546  -1.29007  -1.24215  -0.92999  -0.90561
 Alpha  occ. eigenvalues --   -0.81852  -0.68988  -0.68982  -0.57213  -0.47957
 Alpha  occ. eigenvalues --   -0.47477  -0.47019  -0.43779
 Alpha virt. eigenvalues --    0.10583   0.15695   0.20229   0.24977   0.27490
 Alpha virt. eigenvalues --    0.31804   0.36418   0.40845   0.43925   0.49299
 Alpha virt. eigenvalues --    0.52916   0.66134   0.66228   0.69623   0.71561

  Exact polarizability:  36.193   0.467  36.855   0.000   0.000  15.575
 Approx polarizability:  36.473   0.047  39.610   0.000   0.000  13.584

                     1                      2                      3
                    A"                     A"                     A"
 Frequencies --   713.6216               775.1384               788.0847
 Red. masses --     4.3346                11.2985                 1.1200
 Frc consts  --     1.3006                 3.9997                 0.4098
 IR Inten    --    25.2265                 0.5266               184.9308
 Raman Activ --     0.3574                 0.3623                 0.0162

                     4                      5                      6
                    A"                     A'                     A'
 Frequencies --  1000.2513              1048.7446              1092.1168
 Red. masses --     1.3894                 6.1536                 7.7998
 Frc consts  --     0.8190                 3.9877                 5.4812
 IR Inten    --    11.7329                 1.0845                 7.5583
 Raman Activ --     1.2786                 3.0909                 5.1554

                     7                      8                      9
                    A'                     A'                     A'
 Frequencies --  1121.4852              1157.0210              1230.9511
 Red. masses --     3.5719                 5.4253                 1.9813
 Frc consts  --     2.6469                 4.2792                 1.7688
 IR Inten    --    35.0558                22.1003                17.9823
 Raman Activ --     3.2240                11.2347                 4.5254

                    10                     11                     12
                    A'                     A'                     A'
 Frequencies --  1367.4842              1452.6573              1534.6228
 Red. masses --     2.7345                 6.9996                 2.9470
 Frc consts  --     3.0129                 8.7026                 4.0892
 IR Inten    --     1.6112                24.5357                 6.2306
 Raman Activ --    14.7207                19.7841                12.6299

                    13                     14                     15
                    A'                     A'                     A'
 Frequencies --  1654.3977              3538.0835              3974.9839
 Red. masses --     2.4151                 1.1055                 1.0870
 Frc consts  --     3.8946                 8.1534                10.1194
 IR Inten    --    38.2869                 1.0588               170.1383
 Raman Activ --     3.8035                65.1778                65.5324

 - Thermochemistry -
 -------------------
 Temperature   298.150 Kelvin.  Pressure   1.00000 Atm.
 Atom  1 has atomic number  7 and mass  14.00307

 Molecular mass:    70.02795 amu.
 Principal axes and moments of inertia in atomic units:
                           1         2         3
     EIGENVALUES --   173.82539 177.50829 351.33368
           X            0.99574   0.09221   0.00000
           Y           -0.09221   0.99574   0.00000
           Z            0.00000   0.00000   1.00000
 THIS MOLECULE IS AN ASYMMETRIC TOP.
 ROTATIONAL SYMMETRY NUMBER  1.
 ROTATIONAL TEMPERATURES (KELVIN)      0.49828     0.48794     0.24653
 ROTATIONAL CONSTANTS (GHZ)           10.38249    10.16708     5.13683
 Zero-point vibrational energy     134278.7 (Joules/Mol)
                                   32.09338 (Kcal/Mol)
 VIBRATIONAL TEMPERATURES:   1026.74  1115.24  1133.87  1439.13  1508.90
          (KELVIN)           1571.30  1613.56  1664.69  1771.05  1967.49
                             2090.04  2207.97  2380.30  5090.48  5719.08

 Zero-point correction=                           0.051144 (Hartree/Particle)
 Thermal correction to Energy=                    0.054424
 Thermal correction to Enthalpy=                  0.055368
 Thermal correction to Gibbs Free Energy=         0.025093
 Sum of electronic and zero-point Energies=            -45.092541
 Sum of electronic and thermal Energies=               -45.089262
 Sum of electronic and thermal Enthalpies=             -45.088318
 Sum of electronic and thermal Free Energies=          -45.118593

                     E (Thermal)             CV                S
                      KCAL/MOL        CAL/MOL-KELVIN    CAL/MOL-KELVIN
 TOTAL                   34.151             10.117             63.719
 ELECTRONIC               0.000              0.000              0.000
 TRANSLATIONAL            0.889              2.981             38.656
 ROTATIONAL               0.889              2.981             23.898
 VIBRATIONAL             32.374              4.155              1.165
                       Q            LOG10(Q)             LN(Q)
 TOTAL BOT       0.287219D-11        -11.541786        -26.575945
 TOTAL V=0       0.960922D+12         11.982688         27.591159
 VIB (BOT)       0.334558D-23        -23.475529        -54.054403
 VIB (V=0)       0.111930D+01          0.048946          0.112701
 ELECTRONIC      0.100000D+01          0.000000          0.000000
 TRANSLATIONAL   0.230339D+08          7.362368         16.952478
 ROTATIONAL      0.372714D+05          4.571375         10.525980
 ***** Axes restored to original set *****
 -------------------------------------------------------------------
 Center     Atomic                   Forces (Hartrees/Bohr)
 Number     Number              X              Y              Z
 -------------------------------------------------------------------
    1          7          -0.000056317    0.000280564    0.000000000
    2          7          -0.000246964   -0.000564665    0.000000000
    3          7           0.000738819    0.000276648    0.000000000
    4          1          -0.000004497    0.000024798    0.000000000
    5          7          -0.000128752   -0.000410380    0.000000000
    6          6          -0.000273692    0.000419222    0.000000000
    7          1          -0.000028597   -0.000026186    0.000000000
 -------------------------------------------------------------------
 Cartesian Forces:  Max     0.000738819 RMS     0.000269205

 GradGradGradGradGradGradGradGradGradGradGradGradGradGradGradGradGradGrad
 Berny optimization.
 Internal  Forces:  Max     0.000400484 RMS     0.000167294
 Search for a local minimum.
 Step number   1 out of a maximum of  36
 All quantities printed in internal units (Hartrees-Bohrs-Radians)
 Second derivative matrix not updated -- analytic derivatives used.
     Eigenvalues ---    0.01353   0.03309   0.08388   0.08899   0.11772
     Eigenvalues ---    0.12936   0.25129   0.27741   0.39118   0.43685
     Eigenvalues ---    0.49804   0.53503   0.56056   0.67544   0.71134
     Eigenvalues --- 1000.000001000.000001000.000001000.000001000.00000
     Eigenvalues --- 1000.000001000.000001000.000001000.000001000.00000
     Eigenvalues --- 1000.00000
 Angle between quadratic step and forces=  26.31 degrees.
 Linear search not attempted -- first point.
 Iteration  1 RMS(Cart)=  0.00040911 RMS(Int)=  0.00000015
 Iteration  2 RMS(Cart)=  0.00000015 RMS(Int)=  0.00000006
 Variable       Old X    -DE/DX   Delta X   Delta X   Delta X     New X
                                 (Linear)    (Quad)   (Total)
    R1        2.44303  -0.00020   0.00000  -0.00075  -0.00075   2.44228
    R2        2.61274   0.00002   0.00000   0.00043   0.00043   2.61317
    R3        2.58505   0.00029   0.00000   0.00116   0.00116   2.58621
    R4        1.88031   0.00002   0.00000   0.00001   0.00001   1.88032
    R5        2.56495  -0.00012   0.00000  -0.00040  -0.00040   2.56455
    R6        2.49616   0.00029   0.00000   0.00033   0.00033   2.49649
    R7        2.01718  -0.00002   0.00000   0.00000   0.00000   2.01718
    A1        1.93487  -0.00005   0.00000   0.00014   0.00014   1.93501
    A2        1.85546   0.00032   0.00000   0.00053   0.00053   1.85599
    A3        2.10830   0.00018   0.00000   0.00019   0.00019   2.10848
    A4        1.89334  -0.00040   0.00000  -0.00102  -0.00102   1.89232
    A5        2.28155   0.00022   0.00000   0.00083   0.00083   2.28238
    A6        1.85290  -0.00016   0.00000  -0.00064  -0.00064   1.85226
    A7        1.88821   0.00029   0.00000   0.00098   0.00098   1.88919
    A8        2.19592  -0.00011   0.00000   0.00001   0.00001   2.19592
    A9        2.19906  -0.00018   0.00000  -0.00099  -0.00099   2.19807
    D1        0.00000   0.00000   0.00000   0.00000   0.00000   0.00000
    D2        0.00000   0.00000   0.00000   0.00000   0.00000   0.00000
    D3        3.14159   0.00000   0.00000   0.00000   0.00000   3.14159
    D4        0.00000   0.00000   0.00000   0.00000   0.00000   0.00000
    D5        0.00000   0.00000   0.00000   0.00000   0.00000   0.00000
    D6        3.14159   0.00000   0.00000   0.00000   0.00000   3.14159
    D7        3.14159   0.00000   0.00000   0.00000   0.00000   3.14159
    D8        0.00000   0.00000   0.00000   0.00000   0.00000   0.00000
    D9        0.00000   0.00000   0.00000   0.00000   0.00000   0.00000
   D10        3.14159   0.00000   0.00000   0.00000   0.00000   3.14159
         Item               Value     Threshold  Converged?
 Maximum Force            0.000400     0.000450     YES
 RMS     Force            0.000167     0.000300     YES
 Maximum Displacement     0.000959     0.001800     YES
 RMS     Displacement     0.000409     0.001200     YES
 Predicted change in Energy=-9.966642D-07
 Optimization completed.
    -- Stationary point found.
                         ----------------------------
                         !   Optimized Parameters   !
                         ! (Angstroms and Degrees)  !
 ------------------------                            -------------------------
 ! Name  Definition              Value          Derivative Info.             !
 -----------------------------------------------------------------------------
 ! R1    R(1,2)                  1.2928         -DE/DX =   -0.0002           !
 ! R2    R(1,5)                  1.3826         -DE/DX =    0.               !
 ! R3    R(2,3)                  1.3679         -DE/DX =    0.0003           !
 ! R4    R(3,4)                  0.995          -DE/DX =    0.               !
 ! R5    R(3,6)                  1.3573         -DE/DX =   -0.0001           !
 ! R6    R(5,6)                  1.3209         -DE/DX =    0.0003           !
 ! R7    R(6,7)                  1.0674         -DE/DX =    0.               !
 ! A1    A(2,1,5)              110.8598         -DE/DX =   -0.0001           !
 ! A2    A(1,2,3)              106.3102         -DE/DX =    0.0003           !
 ! A3    A(2,3,4)              120.7966         -DE/DX =    0.0002           !
 ! A4    A(2,3,6)              108.4804         -DE/DX =   -0.0004           !
 ! A5    A(4,3,6)              130.723          -DE/DX =    0.0002           !
 ! A6    A(1,5,6)              106.1634         -DE/DX =   -0.0002           !
 ! A7    A(3,6,5)              108.1862         -DE/DX =    0.0003           !
 ! A8    A(3,6,7)              125.8167         -DE/DX =   -0.0001           !
 ! A9    A(5,6,7)              125.9971         -DE/DX =   -0.0002           !
 ! D1    D(5,1,2,3)              0.             -DE/DX =    0.               !
 ! D2    D(2,1,5,6)              0.             -DE/DX =    0.               !
 ! D3    D(1,2,3,4)            180.             -DE/DX =    0.               !
 ! D4    D(1,2,3,6)              0.             -DE/DX =    0.               !
 ! D5    D(2,3,6,5)              0.             -DE/DX =    0.               !
 ! D6    D(2,3,6,7)            180.             -DE/DX =    0.               !
 ! D7    D(4,3,6,5)            180.             -DE/DX =    0.               !
 ! D8    D(4,3,6,7)              0.             -DE/DX =    0.               !
 ! D9    D(1,5,6,3)              0.             -DE/DX =    0.               !
 ! D10   D(1,5,6,7)            180.             -DE/DX =    0.               !
 -----------------------------------------------------------------------------
 GradGradGradGradGradGradGradGradGradGradGradGradGradGradGradGradGradGrad

 1\1\GINC-WOLFRAM\Freq\RHF\CEP-31G\C1H2N4\RDJ3\30-Aug-2000\0\\#N GEOM=A
 LLCHECK GUESS=TCHECK RHF/CEP-31G FREQ\\1H tetrazole c CH-NH-N=N-N= cas
 no=288948\\0,1\N,-1.1825394214,-0.2798126709,0.\N,-0.7188013534,0.9269
 453279,0.\N,0.6445254208,0.814601958,0.\H,1.2224369176,1.6245852424,0.
 \N,-0.153141766,-1.2028138052,0.\C,0.9675920111,-0.5037010241,0.\H,1.9
 569806381,-0.904385195,0.\\Version=IBM-RS6000-G98RevA.6\State=1-A'\HF=
 -45.1436854\RMSD=1.596e-09\RMSF=2.692e-04\Dipole=2.3171693,0.9451842,0
 .\DipoleDeriv=0.0963895,-0.192123,0.,-0.1809929,0.0478226,0.,0.,0.,-0.
 1792538,0.3215919,0.287792,0.,0.2385349,-0.3214046,0.,0.,0.,-0.0776578
 ,-0.5083928,-0.4065952,0.,-0.2593091,-0.4071913,0.,0.,0.,-0.3159697,0.
 2737883,0.0802642,0.,0.0631863,0.3266099,0.,0.,0.,0.4552447,-0.5290289
 ,0.1959666,0.,-0.1187011,-0.2509705,0.,0.,0.,-0.2586255,0.28503,0.0117
 001,0.,0.237335,0.4552889,0.,0.,0.,0.172231,0.060622,0.0229953,0.,0.01
 9947,0.149845,0.,0.,0.,0.2040311\Polar=36.9025164,0.4297406,36.1458944
 ,0.,0.,15.5754697\PolarDeriv=-9.8860199,-3.6393107,-1.9710685,0.,0.,-0
 .3522705,-2.7848373,3.0299047,-5.6442939,0.,0.,-0.1708579,0.,0.,0.,-3.
 2670639,-1.8629158,0.,-2.5822583,1.4184204,-2.2653073,0.,0.,0.8388194,
 3.9682489,-5.8836544,12.8415032,0.,0.,0.0311803,0.,0.,0.,-1.6484496,3.
 8930743,0.,0.3439312,0.838349,0.0982792,0.,0.,-0.1380446,1.3941783,2.0
 375941,-1.3662802,0.,0.,0.6678003,0.,0.,0.,1.1215301,1.9737672,0.,3.08
 72625,2.5506499,2.3604006,0.,0.,-0.1664022,1.8775517,2.8383607,5.76767
 67,0.,0.,0.1764808,0.,0.,0.,0.3145844,0.4782328,0.,-3.3752477,3.252640
 9,-2.2797929,0.,0.,-0.1300045,-2.3848243,-1.2732979,-10.8676413,0.,0.,
 -0.6871469,0.,0.,0.,-1.6334204,-2.9927994,0.,4.7672429,-1.9218553,2.41
 96887,0.,0.,-0.1001866,-0.0098046,-2.7464098,0.9950709,0.,0.,0.2427595
 ,0.,0.,0.,5.1807769,-1.4376131,0.,7.6450893,-2.4988942,1.6378001,0.,0.
 ,0.048089,-2.0605127,1.9975026,-1.7260355,0.,0.,-0.2602162,0.,0.,0.,-0
 .0679576,-0.051746,0.\HyperPolar=35.304557,8.5752316,4.7208229,22.2645
 569,0.,0.,0.,25.5857528,-4.4309746,0.\PG=CS [SG(C1H2N4)]\NImag=0\\0.61
 498794,0.11602875,0.59051403,0.,0.,0.13666323,-0.15699856,-0.14244227,
 0.,0.48051458,-0.07047645,-0.42031892,0.,0.00177686,0.74449667,0.,0.,-
 0.10574381,0.,0.,0.12693453,-0.12647157,-0.11279767,0.,-0.25439817,0.0
 0118898,0.,0.79187903,-0.02968854,-0.07368645,0.,0.05939055,-0.1382210
 7,0.,0.26199334,1.05472539,0.,0.,0.02874836,0.,0.,-0.08159613,0.,0.,0.
 13111357,-0.01186482,0.00144306,0.,-0.00353770,-0.03883710,0.,-0.24294
 587,-0.21561107,0.,0.23901466,0.00961226,0.00410964,0.,0.00643639,0.01
 588762,0.,-0.22532399,-0.40340689,0.,0.22945653,0.39443645,0.,0.,0.007
 93070,0.,0.,-0.00956147,0.,0.,-0.02088136,0.,0.,0.02120608,-0.18700510
 ,0.07368270,0.,0.00133162,0.10048563,0.,-0.00163027,-0.13189145,0.,0.0
 0068951,0.00199091,0.,0.55428833,0.02004923,-0.14496047,0.,-0.02260628
 ,-0.13052777,0.,0.00229081,-0.10507170,0.,0.00884557,-0.00533919,0.,0.
 10468188,0.59248850,0.,0.,-0.10017095,0.,0.,0.03879453,0.,0.,0.0258424
 6,0.,0.,0.00889714,0.,0.,0.12497996,-0.13048640,0.06619706,0.,-0.06798
 818,0.00885577,0.,-0.17406337,0.06314421,0.,0.01873675,-0.02269238,0.,
 -0.35607358,-0.12867221,0.,1.08856184,-0.03936665,0.04487705,0.,0.1008
 1025,-0.06478379,0.,0.03530806,-0.32811829,0.,0.01505168,-0.00555024,0
 .,-0.12708285,-0.22107712,0.,-0.11222407,0.68909183,0.,0.,0.02190969,0
 .,0.,0.02472069,0.,0.,-0.08369291,0.,0.,-0.00632870,0.,0.,-0.09456402,
 0.,0.,0.18087497,-0.00216149,-0.00211163,0.,0.00107643,-0.00299371,0.,
 0.00763022,-0.00733704,0.,-0.00009252,0.00052028,0.,-0.01160051,0.0154
 1100,0.,-0.37868705,0.12750358,0.,0.38383493,-0.00615861,-0.00053488,0
 .,-0.00336551,-0.00653275,0.,0.03734046,-0.00622100,0.,-0.00034868,-0.
 00013740,0.,-0.02186682,0.01448774,0.,0.12539162,-0.11443944,0.,-0.130
 99246,0.11337773,0.,0.,0.01066278,0.,0.,0.00645166,0.,0.,0.00046600,0.
 ,0.,-0.00126239,0.,0.,-0.00377913,0.,0.,-0.04291972,0.,0.,0.03038080\\
 0.00005632,-0.00028056,0.,0.00024696,0.00056467,0.,-0.00073882,-0.0002
 7665,0.,0.00000450,-0.00002480,0.,0.00012875,0.00041038,0.,0.00027369,
 -0.00041922,0.,0.00002860,0.00002619,0.\\\@

 IT CANNOT BE MY BEAUTY, FOR I HAVE NONE; AND IT CANNOT BE MY WIT,
 FOR HE HAS NOT ENOUGH TO KNOW THAT I HAVE ANY.
 -- CATHARINE SEDLEY, PUZZLED ABOUT WHY SHE WAS MISTRESS TO JAMES II
 Job cpu time:  0 days  0 hours  0 minutes 31.9 seconds.
 File lengths (MBytes):  RWF=   12 Int=    0 D2E=    0 Chk=    8 Scr=    1
 Normal termination of Gaussian 98.
