 Gaussian 98, Revision A.6,
 Gaussian 98:  IBM-RS6000-G98RevA.6 19-Oct-1998

 ------------------------
 #HF/aug-cc-pVDZ opt freq
 ------------------------

 ----------------------------------------
 1H tetrazole c CH-NH-N=N-N= casno=288948
 ----------------------------------------
 Symbolic Z-matrix:
 Charge =  0 Multiplicity = 1

 SCF Done:  E(RHF) =  -256.797933875     A.U. after   15 cycles
 SCF Done:  E(RHF) =  -256.797986581     A.U. after   11 cycles
 SCF Done:  E(RHF) =  -256.797988822     A.U. after   10 cycles
 SCF Done:  E(RHF) =  -256.797990493     A.U. after    9 cycles
 Optimization completed.
    -- Stationary point found.
 Normal termination of Gaussian 98.

 --------------------------------------------------
 #N Geom=AllCheck Guess=TCheck RHF/Aug-CC-pVDZ Freq
 --------------------------------------------------

 1H tetrazole c CH-NH-N=N-N= casno=288948
 ----------------------------------------
 Redundant internal coordinates taken from checkpointfile:
 /wrk/rdj3/Gau-14058.chk
 Charge =  0 Multiplicity = 1

                         Standard orientation:
 ---------------------------------------------------------------------
 Center     Atomic     Atomic              Coordinates (Angstroms)
 Number     Number      Type              X           Y           Z
 ---------------------------------------------------------------------
    1          7             0       -0.718416   -0.902347    0.000000
    2          7             0       -1.095575    0.293332    0.000000
    3          7             0        0.000000    1.040421    0.000000
    4          1             0       -0.057648    2.033714    0.000000
    5          7             0        0.621743   -0.992837    0.000000
    6          6             0        1.054008    0.225537    0.000000
    7          1             0        2.079334    0.543083    0.000000
 ---------------------------------------------------------------------

 SCF Done:  E(RHF) =  -256.797990493     A.U. after    1 cycles

  The electronic state is 1-A'.
 Alpha  occ. eigenvalues --  -15.68634 -15.66652 -15.64918 -15.60739 -11.34091
 Alpha  occ. eigenvalues --   -1.52466  -1.27065  -1.21348  -0.91755  -0.90025
 Alpha  occ. eigenvalues --   -0.81128  -0.69149  -0.68559  -0.57623  -0.47976
 Alpha  occ. eigenvalues --   -0.46950  -0.46076  -0.42665
 Alpha virt. eigenvalues --    0.01942   0.04176   0.08134   0.08632   0.10887
 Alpha virt. eigenvalues --    0.12757   0.13575   0.14285   0.15627   0.16754
 Alpha virt. eigenvalues --    0.16976   0.17905   0.19850   0.20012   0.21561

  Exact polarizability:  40.897   0.312  41.218   0.000   0.000  24.865
 Approx polarizability:  40.369   0.279  42.388   0.000   0.000  26.363

                     1                      2                      3
                    A"                     A"                     A"
 Frequencies --   609.6406               744.1314               811.1711
 Red. masses --     1.5566                 2.1590                 9.8645
 Frc consts  --     0.3409                 0.7044                 3.8243
 IR Inten    --   106.8410                 4.3440                 6.7182
 Raman Activ --     0.0875                 0.1256                 0.0602

                     4                      5                      6
                    A"                     A'                     A'
 Frequencies --  1000.6192              1083.7299              1106.8973
 Red. masses --     1.3891                 4.2976                 7.2895
 Frc consts  --     0.8195                 2.9739                 5.2622
 IR Inten    --    12.9510                 1.6418                 1.7064
 Raman Activ --     0.4022                 1.1061                 1.4089

                     7                      8                      9
                    A'                     A'                     A'
 Frequencies --  1172.3125              1192.9195              1248.0732
 Red. masses --     3.3888                 2.5247                 2.6222
 Frc consts  --     2.7440                 2.1168                 2.4066
 IR Inten    --    24.9762                32.2959                19.3719
 Raman Activ --     6.6540                 1.2128                 4.7005

                    10                     11                     12
                    A'                     A'                     A'
 Frequencies --  1413.2571              1535.7643              1613.9573
 Red. masses --     2.8648                 5.9347                 3.3600
 Frc consts  --     3.3713                 8.2470                 5.1568
 IR Inten    --     1.4899                29.8994                11.4165
 Raman Activ --    15.6128                27.8061                 8.1631

                    13                     14                     15
                    A'                     A'                     A'
 Frequencies --  1701.4797              3450.9822              3906.0520
 Red. masses --     3.8456                 1.1049                 1.0856
 Frc consts  --     6.5594                 7.7529                 9.7587
 IR Inten    --    22.7982                 0.7448               138.9726
 Raman Activ --     1.7680                63.9701                68.3138

 - Thermochemistry -
 -------------------
 Temperature   298.150 Kelvin.  Pressure   1.00000 Atm.
 Atom  1 has atomic number  7 and mass  14.00307

 Molecular mass:    70.02795 amu.
 Principal axes and moments of inertia in atomic units:
                           1         2         3
     EIGENVALUES --   165.83749 168.53098 334.36846
           X            0.92343   0.38378   0.00000
           Y           -0.38378   0.92343   0.00000
           Z            0.00000   0.00000   1.00000
 THIS MOLECULE IS AN ASYMMETRIC TOP.
 ROTATIONAL SYMMETRY NUMBER  1.
 ROTATIONAL TEMPERATURES (KELVIN)      0.52228     0.51393     0.25904
 ROTATIONAL CONSTANTS (GHZ)           10.88259    10.70866     5.39746
 Zero-point vibrational energy     135124.1 (Joules/Mol)
                                   32.29544 (Kcal/Mol)
 WARNING-- EXPLICIT CONSIDERATION OF   1 DEGREES OF FREEDOM AS
           VIBRATIONS MAY CAUSE SIGNIFICANT ERROR
 VIBRATIONAL TEMPERATURES:    877.13  1070.63  1167.09  1439.66  1559.24
          (KELVIN)           1592.57  1686.69  1716.34  1795.69  2033.35
                             2209.61  2322.11  2448.04  4965.17  5619.91

 Zero-point correction=                           0.051466 (Hartree/Particle)
 Thermal correction to Energy=                    0.054779
 Thermal correction to Enthalpy=                  0.055723
 Thermal correction to Gibbs Free Energy=         0.025467
 Sum of electronic and zero-point Energies=           -256.746524
 Sum of electronic and thermal Energies=              -256.743212
 Sum of electronic and thermal Enthalpies=            -256.742268
 Sum of electronic and thermal Free Energies=         -256.772524

                     E (Thermal)             CV                S
                      KCAL/MOL        CAL/MOL-KELVIN    CAL/MOL-KELVIN
 TOTAL                   34.374             10.160             63.679
 ELECTRONIC               0.000              0.000              0.000
 TRANSLATIONAL            0.889              2.981             38.656
 ROTATIONAL               0.889              2.981             23.751
 VIBRATIONAL             32.597              4.198              1.272
 VIBRATION  1             0.969              1.011              0.433
                       Q            LOG10(Q)             LN(Q)
 TOTAL BOT       0.193308D-11        -11.713749        -26.971904
 TOTAL V=0       0.909569D+12         11.958836         27.536237
 VIB (BOT)       0.242516D-23        -23.615260        -54.376146
 VIB (BOT)  1    0.242501D+00         -0.615287         -1.416750
 VIB (V=0)       0.114110D+01          0.057325          0.131995
 VIB (V=0)  1    0.105570D+01          0.023542          0.054208
 ELECTRONIC      0.100000D+01          0.000000          0.000000
 TRANSLATIONAL   0.230339D+08          7.362368         16.952478
 ROTATIONAL      0.346053D+05          4.539143         10.451764
 ***** Axes restored to original set *****
 -------------------------------------------------------------------
 Center     Atomic                   Forces (Hartrees/Bohr)
 Number     Number              X              Y              Z
 -------------------------------------------------------------------
    1          7           0.000159207   -0.000045595    0.000000000
    2          7           0.000093610    0.000094384    0.000000000
    3          7          -0.000116915    0.000063358    0.000000000
    4          1           0.000003397   -0.000003046    0.000000000
    5          7          -0.000026887   -0.000117534    0.000000000
    6          6          -0.000096079    0.000010303    0.000000000
    7          1          -0.000016334   -0.000001870    0.000000000
 -------------------------------------------------------------------
 Cartesian Forces:  Max     0.000159207 RMS     0.000064345

 GradGradGradGradGradGradGradGradGradGradGradGradGradGradGradGradGradGrad
 Berny optimization.
 Internal  Forces:  Max     0.000144153 RMS     0.000055327
 Search for a local minimum.
 Step number   1 out of a maximum of  36
 All quantities printed in internal units (Hartrees-Bohrs-Radians)
 Second derivative matrix not updated -- analytic derivatives used.
     Eigenvalues ---    0.00887   0.03208   0.08387   0.09042   0.11993
     Eigenvalues ---    0.12466   0.25788   0.31212   0.41642   0.42554
     Eigenvalues ---    0.53136   0.54209   0.58900   0.69474   0.77423
     Eigenvalues --- 1000.000001000.000001000.000001000.000001000.00000
     Eigenvalues --- 1000.000001000.000001000.000001000.000001000.00000
     Eigenvalues --- 1000.00000
 Angle between quadratic step and forces=  18.98 degrees.
 Linear search not attempted -- first point.
 Iteration  1 RMS(Cart)=  0.00009434 RMS(Int)=  0.00000001
 Iteration  2 RMS(Cart)=  0.00000001 RMS(Int)=  0.00000000
 Variable       Old X    -DE/DX   Delta X   Delta X   Delta X     New X
                                 (Linear)    (Quad)   (Total)
    R1        2.36925   0.00006   0.00000   0.00011   0.00011   2.36936
    R2        2.53830  -0.00005   0.00000  -0.00010  -0.00010   2.53820
    R3        2.50588  -0.00014   0.00000  -0.00025  -0.00025   2.50564
    R4        1.88021   0.00000   0.00000   0.00000   0.00000   1.88021
    R5        2.51764   0.00006   0.00000   0.00005   0.00005   2.51770
    R6        2.44301  -0.00003   0.00000  -0.00001  -0.00001   2.44299
    R7        2.02838  -0.00001   0.00000  -0.00003  -0.00003   2.02835
    A1        1.94377   0.00012   0.00000   0.00019   0.00019   1.94396
    A2        1.86372  -0.00006   0.00000  -0.00009  -0.00009   1.86364
    A3        2.11131   0.00001   0.00000   0.00011   0.00011   2.11142
    A4        1.88497  -0.00001   0.00000  -0.00001  -0.00001   1.88496
    A5        2.28691   0.00000   0.00000  -0.00010  -0.00010   2.28681
    A6        1.84431  -0.00014   0.00000  -0.00022  -0.00022   1.84409
    A7        1.88800   0.00008   0.00000   0.00013   0.00013   1.88814
    A8        2.18312  -0.00003   0.00000  -0.00005  -0.00005   2.18307
    A9        2.21206  -0.00005   0.00000  -0.00008  -0.00008   2.21198
    D1        0.00000   0.00000   0.00000   0.00000   0.00000   0.00000
    D2        0.00000   0.00000   0.00000   0.00000   0.00000   0.00000
    D3        3.14159   0.00000   0.00000   0.00000   0.00000   3.14159
    D4        0.00000   0.00000   0.00000   0.00000   0.00000   0.00000
    D5        0.00000   0.00000   0.00000   0.00000   0.00000   0.00000
    D6        3.14159   0.00000   0.00000   0.00000   0.00000   3.14159
    D7        3.14159   0.00000   0.00000   0.00000   0.00000   3.14159
    D8        0.00000   0.00000   0.00000   0.00000   0.00000   0.00000
    D9        0.00000   0.00000   0.00000   0.00000   0.00000   0.00000
   D10        3.14159   0.00000   0.00000   0.00000   0.00000   3.14159
         Item               Value     Threshold  Converged?
 Maximum Force            0.000144     0.000450     YES
 RMS     Force            0.000055     0.000300     YES
 Maximum Displacement     0.000260     0.001800     YES
 RMS     Displacement     0.000094     0.001200     YES
 Predicted change in Energy=-6.417489D-08
 Optimization completed.
    -- Stationary point found.
                         ----------------------------
                         !   Optimized Parameters   !
                         ! (Angstroms and Degrees)  !
 ------------------------                            -------------------------
 ! Name  Definition              Value          Derivative Info.             !
 -----------------------------------------------------------------------------
 ! R1    R(1,2)                  1.2538         -DE/DX =    0.0001           !
 ! R2    R(1,5)                  1.3432         -DE/DX =   -0.0001           !
 ! R3    R(2,3)                  1.3261         -DE/DX =   -0.0001           !
 ! R4    R(3,4)                  0.995          -DE/DX =    0.               !
 ! R5    R(3,6)                  1.3323         -DE/DX =    0.0001           !
 ! R6    R(5,6)                  1.2928         -DE/DX =    0.               !
 ! R7    R(6,7)                  1.0734         -DE/DX =    0.               !
 ! A1    A(2,1,5)              111.37           -DE/DX =    0.0001           !
 ! A2    A(1,2,3)              106.7836         -DE/DX =   -0.0001           !
 ! A3    A(2,3,4)              120.9691         -DE/DX =    0.               !
 ! A4    A(2,3,6)              108.0007         -DE/DX =    0.               !
 ! A5    A(4,3,6)              131.0302         -DE/DX =    0.               !
 ! A6    A(1,5,6)              105.6713         -DE/DX =   -0.0001           !
 ! A7    A(3,6,5)              108.1745         -DE/DX =    0.0001           !
 ! A8    A(3,6,7)              125.0835         -DE/DX =    0.               !
 ! A9    A(5,6,7)              126.742          -DE/DX =    0.               !
 ! D1    D(5,1,2,3)              0.             -DE/DX =    0.               !
 ! D2    D(2,1,5,6)              0.             -DE/DX =    0.               !
 ! D3    D(1,2,3,4)            180.             -DE/DX =    0.               !
 ! D4    D(1,2,3,6)              0.             -DE/DX =    0.               !
 ! D5    D(2,3,6,5)              0.             -DE/DX =    0.               !
 ! D6    D(2,3,6,7)            180.             -DE/DX =    0.               !
 ! D7    D(4,3,6,5)            180.             -DE/DX =    0.               !
 ! D8    D(4,3,6,7)              0.             -DE/DX =    0.               !
 ! D9    D(1,5,6,3)              0.             -DE/DX =    0.               !
 ! D10   D(1,5,6,7)            180.             -DE/DX =    0.               !
 -----------------------------------------------------------------------------
 GradGradGradGradGradGradGradGradGradGradGradGradGradGradGradGradGradGrad

 1\1\GINC-PLUMBUM\Freq\RHF\Aug-CC-pVDZ\C1H2N4\RDJ3\28-Jul-2001\0\\#N GE
 OM=ALLCHECK GUESS=TCHECK RHF/AUG-CC-PVDZ FREQ\\1H tetrazole c CH-NH-N=
 N-N= casno=288948\\0,1\N,-1.1248991151,-0.2548600174,0.\N,-0.671474534
 5,0.9140295548,0.\N,0.6506419123,0.811875136,0.\H,1.22682659,1.6230255
 674,0.\N,-0.1357179663,-1.1635592983,0.\C,0.9635206625,-0.4831446984,0
 .\H,1.9621973601,-0.8765550024,0.\\Version=IBM-RS6000-G98RevA.6\State=
 1-A'\HF=-256.7979905\RMSD=1.893e-09\RMSF=6.435e-05\Dipole=2.0121271,0.
 8524942,0.\DipoleDeriv=0.0090164,-0.217693,0.,-0.1904946,0.1030363,0.,
 0.,0.,-0.1526774,0.2522951,0.3268516,0.,0.1921421,-0.3578671,0.,0.,0.,
 -0.0970643,-0.4044158,-0.3334992,0.,-0.2405651,-0.3214586,0.,0.,0.,-0.
 1736616,0.2429395,0.0702589,0.,0.0549665,0.3084357,0.,0.,0.,0.3536826,
 -0.5169075,0.1696898,0.,-0.0307532,-0.3648795,0.,0.,0.,-0.2468058,0.35
 87713,-0.0212541,0.,0.2017555,0.515233,0.,0.,0.,0.1478457,0.0583009,0.
 005646,0.,0.0129489,0.1175002,0.,0.,0.,0.1686808\Polar=41.3272688,0.22
 5095,40.7877823,0.,0.,24.8650845\PolarDeriv=-7.5487539,-2.6849443,-3.6
 295156,0.,0.,-2.2791553,-4.2079837,3.5918014,-5.6490965,0.,0.,-1.22013
 64,0.,0.,0.,-2.6756864,-1.123267,0.,-0.9930737,0.4746864,-2.0084993,0.
 ,0.,-0.2151724,5.3097297,-4.2846529,9.5690637,0.,0.,1.9989349,0.,0.,0.
 ,-1.2560708,2.5649649,0.,-1.0275008,-0.2427048,1.0679801,0.,0.,-0.0188
 119,2.1625581,0.6674325,-1.0380553,0.,0.,1.9838929,0.,0.,0.,0.9302559,
 2.0886462,0.,2.9556074,2.3580606,2.6032672,0.,0.,0.5302155,2.3925356,2
 .6539409,5.6271576,0.,0.,0.6609624,0.,0.,0.,0.2836603,0.3416962,0.,-4.
 1131406,3.5981369,-3.3414561,0.,0.,-2.0278995,-3.1668675,-1.4428719,-7
 .9351597,0.,0.,-2.5882966,0.,0.,0.,-1.0682255,-2.3988574,0.,3.2571173,
 -1.2757396,3.6431499,0.,0.,3.0021239,-0.3513495,-3.0238986,1.0216333,0
 .,0.,-0.4108308,0.,0.,0.,3.6740051,-1.3666184,0.,7.4697443,-2.2274952,
 1.6650737,0.,0.,1.0086998,-2.1386227,1.8382486,-1.5955431,0.,0.,-0.424
 5265,0.,0.,0.,0.1120615,-0.1065646,0.\HyperPolar=16.432912,-4.8980443,
 -7.9845569,1.1559998,0.,0.,0.,8.8919844,-8.9390372,0.\PG=CS [SG(C1H2N4
 )]\NImag=0\\0.68919618,0.13786871,0.67240852,0.,0.,0.15022099,-0.19385
 647,-0.15435247,0.,0.55573286,-0.10210615,-0.47874245,0.,-0.00357375,0
 .82663982,0.,0.,-0.11828807,0.,0.,0.13978468,-0.12852119,-0.13502358,0
 .,-0.29268155,0.02531958,0.,0.82102166,-0.03506221,-0.08285433,0.,0.07
 656014,-0.14416135,0.,0.22311773,1.08246552,0.,0.,0.03435040,0.,0.,-0.
 08260808,0.,0.,0.10700651,-0.01262746,0.00115417,0.,-0.00581436,-0.038
 55330,0.,-0.23078419,-0.19882243,0.,0.22889427,0.00826175,0.00452140,0
 .,0.00131609,0.01501669,0.,-0.21103018,-0.39117950,0.,0.22201582,0.382
 70819,0.,0.,0.00836769,0.,0.,-0.01370478,0.,0.,-0.00662385,0.,0.,0.014
 87088,-0.21404233,0.07094977,0.,0.01494667,0.11387405,0.,-0.00922088,-
 0.14379601,0.,0.00246868,0.00138686,0.,0.60477044,0.04052254,-0.173664
 07,0.,-0.02467084,-0.14295122,0.,0.00833678,-0.09552706,0.,0.00927422,
 -0.00703081,0.,0.12006893,0.65859146,0.,0.,-0.10743640,0.,0.,0.0436207
 9,0.,0.,0.02526193,0.,0.,0.00880667,0.,0.,0.13086217,-0.13643102,0.081
 18642,0.,-0.07920449,0.00793301,0.,-0.16587122,0.08143070,0.,0.0184096
 0,-0.02272603,0.,-0.38354236,-0.16710929,0.,1.10183383,-0.04238282,0.0
 5908374,0.,0.10596832,-0.06822619,0.,0.05245460,-0.36507705,0.,0.00527
 933,-0.00393012,0.,-0.14321577,-0.25703216,0.,-0.09402540,0.74989922,0
 .,0.,0.02208538,0.,0.,0.02401144,0.,0.,-0.07711571,0.,0.,-0.01047374,0
 .,0.,-0.09750588,0.,0.,0.18217494,-0.00371771,-0.00178302,0.,0.0008773
 4,-0.00289343,0.,0.00605736,-0.00342793,0.,-0.00054653,0.00077568,0.,-
 0.01538023,0.01357766,0.,-0.35519434,0.11592174,0.,0.36790411,-0.00710
 183,-0.00075281,0.,-0.00124749,-0.00757530,0.,0.03682507,-0.00366623,0
 .,-0.00034781,-0.00010586,0.,-0.01926784,0.01761386,0.,0.11331059,-0.1
 1471745,0.,-0.12217070,0.10920380,0.,0.,0.01070000,0.,0.,0.00718401,0.
 ,0.,-0.00027120,0.,0.,-0.00124287,0.,0.,-0.00360927,0.,0.,-0.04317643,
 0.,0.,0.03041576\\-0.00015921,0.00004559,0.,-0.00009361,-0.00009438,0.
 ,0.00011691,-0.00006336,0.,-0.00000340,0.00000305,0.,0.00002689,0.0001
 1753,0.,0.00009608,-0.00001030,0.,0.00001633,0.00000187,0.\\\@

 You can't act like a skunk without someone's getting wind of it.
 -- Lorene Workman
 Job cpu time:  0 days  0 hours 46 minutes  7.1 seconds.
 File lengths (MBytes):  RWF=   27 Int=    0 D2E=    0 Chk=    4 Scr=    1
 Normal termination of Gaussian 98.
