 Gaussian 98, Revision A.6,
 Gaussian 98:  IBM-RS6000-G98RevA.6 19-Oct-1998

 ----------------
 #HF/SDD opt freq
 ----------------

 ----------------------------------------
 1H tetrazole c CH-NH-N=N-N= casno=288948
 ----------------------------------------
 Symbolic Z-matrix:
 Charge =  0 Multiplicity = 1

 SCF Done:  E(RHF) =  -256.634661781     A.U. after   15 cycles
 SCF Done:  E(RHF) =  -256.639135029     A.U. after   13 cycles
 SCF Done:  E(RHF) =  -256.639155142     A.U. after   12 cycles
 SCF Done:  E(RHF) =  -256.639531136     A.U. after   12 cycles
 SCF Done:  E(RHF) =  -256.639534441     A.U. after   11 cycles
 SCF Done:  E(RHF) =  -256.639537205     A.U. after   10 cycles
 Optimization completed.
    -- Stationary point found.
 Normal termination of Gaussian 98.

 ------------------------------------------
 #N Geom=AllCheck Guess=TCheck RHF/SDD Freq
 ------------------------------------------

 1H tetrazole c CH-NH-N=N-N= casno=288948
 ----------------------------------------
 Redundant internal coordinates taken from checkpointfile:
 /wrk/rdj3/Gau-17294.chk
 Charge =  0 Multiplicity = 1

                         Standard orientation:
 ---------------------------------------------------------------------
 Center     Atomic     Atomic              Coordinates (Angstroms)
 Number     Number      Type              X           Y           Z
 ---------------------------------------------------------------------
    1          7             0       -0.730566   -0.929872    0.000000
    2          7             0       -1.122642    0.290436    0.000000
    3          7             0        0.000000    1.057844    0.000000
    4          1             0       -0.070962    2.046256    0.000000
    5          7             0        0.644042   -0.997168    0.000000
    6          6             0        1.074179    0.242320    0.000000
    7          1             0        2.090053    0.551147    0.000000
 ---------------------------------------------------------------------

 SCF Done:  E(RHF) =  -256.639537205     A.U. after    1 cycles

  The electronic state is 1-A'.
 Alpha  occ. eigenvalues --  -15.69203 -15.68970 -15.66776 -15.62723 -11.36677
 Alpha  occ. eigenvalues --   -1.54412  -1.28266  -1.23714  -0.92740  -0.90587
 Alpha  occ. eigenvalues --   -0.82267  -0.69492  -0.69248  -0.57613  -0.48154
 Alpha  occ. eigenvalues --   -0.47643  -0.47276  -0.44029
 Alpha virt. eigenvalues --    0.10920   0.16063   0.20584   0.25775   0.28239
 Alpha virt. eigenvalues --    0.32111   0.40455   0.44497   0.46738   0.53592
 Alpha virt. eigenvalues --    0.54731   0.64637   0.67252   0.67280   0.70809

  Exact polarizability:  35.983   0.689  36.376   0.000   0.000  14.713
 Approx polarizability:  35.883   0.275  38.928   0.000   0.000  13.157

                     1                      2                      3
                    A"                     A"                     A"
 Frequencies --   727.2779               788.8134               813.4788
 Red. masses --     3.7899                10.8192                 1.1415
 Frc consts  --     1.1811                 3.9664                 0.4450
 IR Inten    --    12.4299                 5.5220               198.1914
 Raman Activ --     0.7186                 0.3853                 0.2420

                     4                      5                      6
                    A"                     A'                     A'
 Frequencies --  1011.2580              1044.8458              1103.0695
 Red. masses --     1.4303                 6.9458                 6.1420
 Frc consts  --     0.8618                 4.4676                 4.4032
 IR Inten    --     7.1103                 2.8766                24.0064
 Raman Activ --     0.7005                 3.6530                 4.5792

                     7                      8                      9
                    A'                     A'                     A'
 Frequencies --  1116.3001              1158.8503              1242.3625
 Red. masses --     4.7611                 5.2697                 2.0041
 Frc consts  --     3.4956                 4.1696                 1.8225
 IR Inten    --    17.7209                19.3718                20.4677
 Raman Activ --     4.0586                 8.4600                 3.8591

                    10                     11                     12
                    A'                     A'                     A'
 Frequencies --  1380.3485              1452.6557              1545.3237
 Red. masses --     2.4861                 7.3207                 2.7775
 Frc consts  --     2.7910                 9.1018                 3.9079
 IR Inten    --     1.9878                24.4265                 7.5156
 Raman Activ --    12.8836                22.4617                13.3355

                    13                     14                     15
                    A'                     A'                     A'
 Frequencies --  1666.3464              3538.5280              3971.5143
 Red. masses --     2.3947                 1.1065                 1.0867
 Frc consts  --     3.9177                 8.1627                10.0987
 IR Inten    --    47.5475                 2.6474               177.0563
 Raman Activ --     3.0736                63.4140                60.9178

 - Thermochemistry -
 -------------------
 Temperature   298.150 Kelvin.  Pressure   1.00000 Atm.
 Atom  1 has atomic number  7 and mass  14.00307

 Molecular mass:    70.02795 amu.
 Principal axes and moments of inertia in atomic units:
                           1         2         3
     EIGENVALUES --   171.47658 175.43656 346.91314
           X            0.99987  -0.01639   0.00000
           Y            0.01639   0.99987   0.00000
           Z            0.00000   0.00000   1.00000
 THIS MOLECULE IS AN ASYMMETRIC TOP.
 ROTATIONAL SYMMETRY NUMBER  1.
 ROTATIONAL TEMPERATURES (KELVIN)      0.50510     0.49370     0.24967
 ROTATIONAL CONSTANTS (GHZ)           10.52471    10.28714     5.20229
 Zero-point vibrational energy     134944.6 (Joules/Mol)
                                   32.25253 (Kcal/Mol)
 VIBRATIONAL TEMPERATURES:   1046.38  1134.92  1170.41  1454.97  1503.29
          (KELVIN)           1587.06  1606.10  1667.32  1787.47  1986.00
                             2090.04  2223.36  2397.49  5091.12  5714.09

 Zero-point correction=                           0.051398 (Hartree/Particle)
 Thermal correction to Energy=                    0.054657
 Thermal correction to Enthalpy=                  0.055602
 Thermal correction to Gibbs Free Energy=         0.025371
 Sum of electronic and zero-point Energies=           -256.588140
 Sum of electronic and thermal Energies=              -256.584880
 Sum of electronic and thermal Enthalpies=            -256.583936
 Sum of electronic and thermal Free Energies=         -256.614166

                     E (Thermal)             CV                S
                      KCAL/MOL        CAL/MOL-KELVIN    CAL/MOL-KELVIN
 TOTAL                   34.298              9.996             63.626
 ELECTRONIC               0.000              0.000              0.000
 TRANSLATIONAL            0.889              2.981             38.656
 ROTATIONAL               0.889              2.981             23.860
 VIBRATIONAL             32.521              4.034              1.109
                       Q            LOG10(Q)             LN(Q)
 TOTAL BOT       0.213917D-11        -11.669754        -26.870602
 TOTAL V=0       0.936223D+12         11.971379         27.565119
 VIB (BOT)       0.253955D-23        -23.595244        -54.330057
 VIB (V=0)       0.111145D+01          0.045889          0.105664
 ELECTRONIC      0.100000D+01          0.000000          0.000000
 TRANSLATIONAL   0.230339D+08          7.362368         16.952478
 ROTATIONAL      0.365698D+05          4.563122         10.506977
 ***** Axes restored to original set *****
 -------------------------------------------------------------------
 Center     Atomic                   Forces (Hartrees/Bohr)
 Number     Number              X              Y              Z
 -------------------------------------------------------------------
    1          7           0.000034199    0.000263590    0.000000000
    2          7          -0.000282865   -0.000130923    0.000000000
    3          7           0.000216081    0.000117053    0.000000000
    4          1          -0.000002491    0.000024141    0.000000000
    5          7          -0.000007958   -0.000246390    0.000000000
    6          6           0.000034916   -0.000014469    0.000000000
    7          1           0.000008118   -0.000013003    0.000000000
 -------------------------------------------------------------------
 Cartesian Forces:  Max     0.000282865 RMS     0.000117761

 GradGradGradGradGradGradGradGradGradGradGradGradGradGradGradGradGradGrad
 Berny optimization.
 Internal  Forces:  Max     0.000191351 RMS     0.000069669
 Search for a local minimum.
 Step number   1 out of a maximum of  36
 All quantities printed in internal units (Hartrees-Bohrs-Radians)
 Second derivative matrix not updated -- analytic derivatives used.
     Eigenvalues ---    0.01431   0.03310   0.08579   0.09123   0.11926
     Eigenvalues ---    0.13154   0.24268   0.27226   0.38923   0.43675
     Eigenvalues ---    0.50570   0.53731   0.56024   0.68290   0.72560
     Eigenvalues --- 1000.000001000.000001000.000001000.000001000.00000
     Eigenvalues --- 1000.000001000.000001000.000001000.000001000.00000
     Eigenvalues --- 1000.00000
 Angle between quadratic step and forces=  20.68 degrees.
 Linear search not attempted -- first point.
 Iteration  1 RMS(Cart)=  0.00016373 RMS(Int)=  0.00000002
 Iteration  2 RMS(Cart)=  0.00000002 RMS(Int)=  0.00000001
 Variable       Old X    -DE/DX   Delta X   Delta X   Delta X     New X
                                 (Linear)    (Quad)   (Total)
    R1        2.42215  -0.00014   0.00000  -0.00047  -0.00047   2.42167
    R2        2.60074   0.00014   0.00000   0.00051   0.00051   2.60126
    R3        2.56978   0.00019   0.00000   0.00067   0.00067   2.57044
    R4        1.87264   0.00002   0.00000   0.00003   0.00003   1.87267
    R5        2.54864   0.00012   0.00000   0.00017   0.00017   2.54881
    R6        2.47932   0.00011   0.00000   0.00012   0.00012   2.47945
    R7        2.00647   0.00001   0.00000   0.00004   0.00004   2.00651
    A1        1.93059   0.00010   0.00000   0.00026   0.00026   1.93085
    A2        1.85954   0.00000   0.00000   0.00003   0.00003   1.85956
    A3        2.09874   0.00001   0.00000  -0.00002  -0.00002   2.09872
    A4        1.89261  -0.00005   0.00000  -0.00024  -0.00024   1.89237
    A5        2.29184   0.00004   0.00000   0.00026   0.00026   2.29210
    A6        1.85590  -0.00008   0.00000  -0.00028  -0.00028   1.85563
    A7        1.88614   0.00003   0.00000   0.00023   0.00023   1.88637
    A8        2.19710   0.00000   0.00000  -0.00003  -0.00003   2.19707
    A9        2.19995  -0.00002   0.00000  -0.00020  -0.00020   2.19975
    D1        0.00000   0.00000   0.00000   0.00000   0.00000   0.00000
    D2        0.00000   0.00000   0.00000   0.00000   0.00000   0.00000
    D3        3.14159   0.00000   0.00000   0.00000   0.00000   3.14159
    D4        0.00000   0.00000   0.00000   0.00000   0.00000   0.00000
    D5        0.00000   0.00000   0.00000   0.00000   0.00000   0.00000
    D6        3.14159   0.00000   0.00000   0.00000   0.00000   3.14159
    D7        3.14159   0.00000   0.00000   0.00000   0.00000   3.14159
    D8        0.00000   0.00000   0.00000   0.00000   0.00000   0.00000
    D9        0.00000   0.00000   0.00000   0.00000   0.00000   0.00000
   D10        3.14159   0.00000   0.00000   0.00000   0.00000   3.14159
         Item               Value     Threshold  Converged?
 Maximum Force            0.000191     0.000450     YES
 RMS     Force            0.000070     0.000300     YES
 Maximum Displacement     0.000420     0.001800     YES
 RMS     Displacement     0.000164     0.001200     YES
 Predicted change in Energy=-1.924957D-07
 Optimization completed.
    -- Stationary point found.
                         ----------------------------
                         !   Optimized Parameters   !
                         ! (Angstroms and Degrees)  !
 ------------------------                            -------------------------
 ! Name  Definition              Value          Derivative Info.             !
 -----------------------------------------------------------------------------
 ! R1    R(1,2)                  1.2817         -DE/DX =   -0.0001           !
 ! R2    R(1,5)                  1.3763         -DE/DX =    0.0001           !
 ! R3    R(2,3)                  1.3599         -DE/DX =    0.0002           !
 ! R4    R(3,4)                  0.991          -DE/DX =    0.               !
 ! R5    R(3,6)                  1.3487         -DE/DX =    0.0001           !
 ! R6    R(5,6)                  1.312          -DE/DX =    0.0001           !
 ! R7    R(6,7)                  1.0618         -DE/DX =    0.               !
 ! A1    A(2,1,5)              110.6146         -DE/DX =    0.0001           !
 ! A2    A(1,2,3)              106.5437         -DE/DX =    0.               !
 ! A3    A(2,3,4)              120.249          -DE/DX =    0.               !
 ! A4    A(2,3,6)              108.4385         -DE/DX =   -0.0001           !
 ! A5    A(4,3,6)              131.3125         -DE/DX =    0.               !
 ! A6    A(1,5,6)              106.3355         -DE/DX =   -0.0001           !
 ! A7    A(3,6,5)              108.0678         -DE/DX =    0.               !
 ! A8    A(3,6,7)              125.8846         -DE/DX =    0.               !
 ! A9    A(5,6,7)              126.0476         -DE/DX =    0.               !
 ! D1    D(5,1,2,3)              0.             -DE/DX =    0.               !
 ! D2    D(2,1,5,6)              0.             -DE/DX =    0.               !
 ! D3    D(1,2,3,4)            180.             -DE/DX =    0.               !
 ! D4    D(1,2,3,6)              0.             -DE/DX =    0.               !
 ! D5    D(2,3,6,5)              0.             -DE/DX =    0.               !
 ! D6    D(2,3,6,7)            180.             -DE/DX =    0.               !
 ! D7    D(4,3,6,5)            180.             -DE/DX =    0.               !
 ! D8    D(4,3,6,7)              0.             -DE/DX =    0.               !
 ! D9    D(1,5,6,3)              0.             -DE/DX =    0.               !
 ! D10   D(1,5,6,7)            180.             -DE/DX =    0.               !
 -----------------------------------------------------------------------------
 GradGradGradGradGradGradGradGradGradGradGradGradGradGradGradGradGradGrad

 1\1\GINC-AURUM\Freq\RHF\SDD\C1H2N4\RDJ3\08-Sep-2000\0\\#N GEOM=ALLCHEC
 K GUESS=TCHECK RHF/SDD FREQ\\1H tetrazole c CH-NH-N=N-N= casno=288948\
 \0,1\N,-1.1532029791,-0.2617482126,0.\N,-0.6887591756,0.9328922593,0.\
 N,0.6665336658,0.8214419461,0.\H,1.2342152918,1.6336810299,0.\N,-0.128
 1880743,-1.1801277679,0.\C,0.9868088026,-0.4886588641,0.\H,1.970247834
 4,-0.8889354201,0.\\Version=IBM-RS6000-G98RevA.6\State=1-A'\HF=-256.63
 95372\RMSD=1.546e-09\RMSF=1.178e-04\Dipole=2.2504926,0.9417005,0.\Dipo
 leDeriv=0.0917438,-0.200561,0.,-0.1742208,0.0409205,0.,0.,0.,-0.163822
 1,0.3144509,0.2968941,0.,0.2130833,-0.3152756,0.,0.,0.,-0.0814435,-0.5
 154759,-0.3737289,0.,-0.2378777,-0.4244699,0.,0.,0.,-0.3179664,0.29072
 69,0.072093,0.,0.0663326,0.3370265,0.,0.,0.,0.4561289,-0.5456421,0.168
 1604,0.,-0.1267476,-0.2647161,0.,0.,0.,-0.2609702,0.2882126,0.0224512,
 0.,0.2509338,0.4704375,0.,0.,0.,0.1665383,0.0759837,0.0146913,0.,0.008
 4964,0.1560772,0.,0.,0.,0.201535\Polar=36.8127646,0.3340735,35.5461499
 ,0.,0.,14.7130614\PolarDeriv=-9.7372559,-3.3470564,-2.23926,0.,0.,-0.2
 778793,-3.1351934,3.1253272,-5.8495159,0.,0.,-0.12704,0.,0.,0.,-3.1592
 795,-1.7846174,0.,-2.3165095,1.1385665,-2.1606282,0.,0.,0.2965842,4.43
 47022,-5.6608437,12.6971091,0.,0.,0.1232015,0.,0.,0.,-1.5279664,3.7988
 235,0.,0.4518605,0.6787619,0.3530817,0.,0.,0.0682424,1.3602185,1.95483
 34,-1.3064393,0.,0.,0.2533317,0.,0.,0.,0.5811688,1.9202569,0.,2.839909
 4,2.5257601,2.2934347,0.,0.,0.0502349,1.7809408,2.7468681,5.5340043,0.
 ,0.,0.2051326,0.,0.,0.,0.5107177,0.6383917,0.,-3.3701893,3.365358,-2.2
 277737,0.,0.,0.3763936,-2.3096885,-1.3647442,-10.5391714,0.,0.,-0.3851
 548,0.,0.,0.,-1.9303724,-3.0147722,0.,4.5979931,-1.9722419,2.4232598,0
 .,0.,-1.0669228,-0.3197766,-2.8720039,1.2546544,0.,0.,0.3287985,0.,0.,
 0.,5.2400295,-1.3734994,0.,7.5341918,-2.3891483,1.5578858,0.,0.,0.5533
 47,-1.811203,2.0705631,-1.7906412,0.,0.,-0.3982695,0.,0.,0.,0.2857022,
 -0.1845832,0.\HyperPolar=37.0335748,6.8095438,4.6715168,21.0255957,0.,
 0.,0.,15.3515595,-2.3062571,0.\PG=CS [SG(C1H2N4)]\NImag=0\\0.61672071,
 0.12664817,0.58014907,0.,0.,0.14112807,-0.15783374,-0.14408050,0.,0.47
 179556,-0.06901526,-0.41481820,0.,-0.00049315,0.74970923,0.,0.,-0.1093
 8979,0.,0.,0.13160734,-0.13258805,-0.11464950,0.,-0.23524945,-0.003711
 11,0.,0.77651114,-0.03103055,-0.07704377,0.,0.06105246,-0.13790314,0.,
 0.26231834,1.06208744,0.,0.,0.02981453,0.,0.,-0.08603047,0.,0.,0.14155
 507,-0.01113402,0.00136915,0.,-0.00672436,-0.03964541,0.,-0.23685022,-
 0.21280094,0.,0.23544374,0.00905014,0.00438757,0.,0.00707147,0.0153366
 4,0.,-0.22210722,-0.40695593,0.,0.22654877,0.39919350,0.,0.,0.00795532
 ,0.,0.,-0.00909346,0.,0.,-0.02378739,0.,0.,0.02255150,-0.17710199,0.06
 549133,0.,0.00119273,0.10286038,0.,-0.00376292,-0.13368763,0.,0.000391
 43,0.00246540,0.,0.55683617,0.00826095,-0.13775842,0.,-0.02070563,-0.1
 3603285,0.,0.00068062,-0.10607557,0.,0.00910856,-0.00547801,0.,0.11785
 982,0.59628370,0.,0.,-0.10372711,0.,0.,0.04012280,0.,0.,0.02741465,0.,
 0.,0.00893463,0.,0.,0.12971140,-0.13621362,0.06681616,0.,-0.07445681,0
 .01384941,0.,-0.17675411,0.06141790,0.,0.01931073,-0.02394809,0.,-0.36
 469030,-0.12960489,0.,1.11084148,-0.03781290,0.04603216,0.,0.10066573,
 -0.07022630,0.,0.03937330,-0.32764300,0.,0.01574665,-0.00622278,0.,-0.
 13249964,-0.22609647,0.,-0.11403809,0.70108215,0.,0.,0.02340706,0.,0.,
 0.02667801,0.,0.,-0.09031694,0.,0.,-0.00508950,0.,0.,-0.09884964,0.,0.
 ,0.18800738,-0.00184929,-0.00159482,0.,0.00127608,-0.00384487,0.,0.008
 69362,-0.00726958,0.,-0.00043729,0.00091952,0.,-0.01286512,0.01440058,
 0.,-0.37803737,0.12856496,0.,0.38321938,-0.00610054,-0.00094840,0.,-0.
 00351038,-0.00606538,0.,0.03809557,-0.00646603,0.,-0.00032679,-0.00026
 099,0.,-0.02248967,0.01515760,0.,0.12550760,-0.11692576,0.,-0.13117579
 ,0.11550896,0.,0.,0.01081192,0.,0.,0.00610556,0.,0.,0.00135054,0.,0.,-
 0.00147110,0.,0.,-0.00360673,0.,0.,-0.04383637,0.,0.,0.03064617\\-0.00
 003420,-0.00026359,0.,0.00028286,0.00013092,0.,-0.00021608,-0.00011705
 ,0.,0.00000249,-0.00002414,0.,0.00000796,0.00024639,0.,-0.00003492,0.0
 0001447,0.,-0.00000812,0.00001300,0.\\\@

 NATURE REVEALS EVERY SECRET ONCE.
                    - RALPH WALDO EMERSON
 Job cpu time:  0 days  0 hours  1 minutes 21.2 seconds.
 File lengths (MBytes):  RWF=   12 Int=    0 D2E=    0 Chk=    8 Scr=    1
 Normal termination of Gaussian 98.
