 Gaussian 98, Revision A.6,
 Gaussian 98:  IBM-RS6000-G98RevA.6 19-Oct-1998

 ---------------------
 #HF/CEP-31G* opt freq
 ---------------------

 ----------------------------------------
 1H tetrazole c CH-NH-N=N-N= casno=288948
 ----------------------------------------
 Symbolic Z-matrix:
 Charge =  0 Multiplicity = 1

 SCF Done:  E(RHF) =  -45.3005682283     A.U. after   15 cycles
 SCF Done:  E(RHF) =  -45.3014773332     A.U. after   13 cycles
 SCF Done:  E(RHF) =  -45.3014927299     A.U. after   11 cycles
 SCF Done:  E(RHF) =  -45.3015055453     A.U. after   11 cycles
 Optimization completed.
    -- Stationary point found.
 Normal termination of Gaussian 98.

 -------------------------------------------------
 #N Geom=AllCheck Guess=TCheck RHF/CEP-31G(d) Freq
 -------------------------------------------------

 1H tetrazole c CH-NH-N=N-N= casno=288948
 ----------------------------------------
 Redundant internal coordinates taken from checkpointfile:
 /wrk/rdj3/Gau-17892.chk
 Charge =  0 Multiplicity = 1

                         Standard orientation:
 ---------------------------------------------------------------------
 Center     Atomic     Atomic              Coordinates (Angstroms)
 Number     Number      Type              X           Y           Z
 ---------------------------------------------------------------------
    1          7             0       -0.740400   -0.930000    0.000000
    2          7             0       -1.112669    0.280453    0.000000
    3          7             0        0.000000    1.022450    0.000000
    4          1             0       -0.054341    2.020860    0.000000
    5          7             0        0.606725   -1.030385    0.000000
    6          6             0        1.051297    0.191742    0.000000
    7          1             0        2.080869    0.499587    0.000000
 ---------------------------------------------------------------------

 SCF Done:  E(RHF) =  -45.3015055453     A.U. after    1 cycles

  The electronic state is 1-A'.
 Alpha  occ. eigenvalues --   -1.52109  -1.27186  -1.21364  -0.91733  -0.89644
 Alpha  occ. eigenvalues --   -0.80725  -0.68450  -0.68240  -0.57108  -0.47501
 Alpha  occ. eigenvalues --   -0.46543  -0.45793  -0.42312
 Alpha virt. eigenvalues --    0.13553   0.18347   0.21138   0.26243   0.28048
 Alpha virt. eigenvalues --    0.34414   0.36898   0.43053   0.44864   0.49592
 Alpha virt. eigenvalues --    0.55441   0.64273   0.66345   0.68225   0.69335

  Exact polarizability:  36.297   0.354  36.777   0.000   0.000  17.207
 Approx polarizability:  36.743   0.128  39.021   0.000   0.000  18.204

                     1                      2                      3
                    A"                     A"                     A"
 Frequencies --   625.4791               739.0788               794.9111
 Red. masses --     1.7288                 1.9758                 8.8450
 Frc consts  --     0.3985                 0.6359                 3.2929
 IR Inten    --   123.3376                10.6325                10.1534
 Raman Activ --     0.2044                 0.1537                 0.1853

                     4                      5                      6
                    A"                     A'                     A'
 Frequencies --   998.2674              1074.6582              1097.2888
 Red. masses --     1.3698                 4.7983                 6.3966
 Frc consts  --     0.8043                 3.2649                 4.5378
 IR Inten    --    14.7105                 2.2959                 2.4299
 Raman Activ --     1.2311                 2.2952                 2.9183

                     7                      8                      9
                    A'                     A'                     A'
 Frequencies --  1182.8022              1209.9228              1252.1072
 Red. masses --     2.9076                 2.7897                 2.4292
 Frc consts  --     2.3967                 2.4062                 2.2439
 IR Inten    --    30.2308                30.5231                16.9360
 Raman Activ --     4.2433                 3.3161                 8.1833

                    10                     11                     12
                    A'                     A'                     A'
 Frequencies --  1420.5414              1546.3756              1607.6190
 Red. masses --     3.0418                 4.7849                 3.7351
 Frc consts  --     3.6165                 6.7415                 5.6875
 IR Inten    --     3.1932                43.0237                11.6769
 Raman Activ --    12.0448                17.5292                11.3022

                    13                     14                     15
                    A'                     A'                     A'
 Frequencies --  1709.5054              3495.6794              3930.6529
 Red. masses --     4.2901                 1.1040                 1.0857
 Frc consts  --     7.3868                 7.9483                 9.8832
 IR Inten    --    22.3332                 0.6981               143.7305
 Raman Activ --     1.9171                62.4295                68.1541

 - Thermochemistry -
 -------------------
 Temperature   298.150 Kelvin.  Pressure   1.00000 Atm.
 Atom  1 has atomic number  7 and mass  14.00307

 Molecular mass:    70.02795 amu.
 Principal axes and moments of inertia in atomic units:
                           1         2         3
     EIGENVALUES --   168.20038 170.83758 339.03796
           X            0.88967   0.45660   0.00000
           Y           -0.45660   0.88967   0.00000
           Z            0.00000   0.00000   1.00000
 THIS MOLECULE IS AN ASYMMETRIC TOP.
 ROTATIONAL SYMMETRY NUMBER  1.
 ROTATIONAL TEMPERATURES (KELVIN)      0.51494     0.50699     0.25547
 ROTATIONAL CONSTANTS (GHZ)           10.72971    10.56408     5.32312
 Zero-point vibrational energy     135685.8 (Joules/Mol)
                                   32.42968 (Kcal/Mol)
 VIBRATIONAL TEMPERATURES:    899.92  1063.36  1143.69  1436.28  1546.18
          (KELVIN)           1578.74  1701.78  1740.80  1801.49  2043.83
                             2224.88  2312.99  2459.58  5029.47  5655.30

 Zero-point correction=                           0.051680 (Hartree/Particle)
 Thermal correction to Energy=                    0.054990
 Thermal correction to Enthalpy=                  0.055935
 Thermal correction to Gibbs Free Energy=         0.025662
 Sum of electronic and zero-point Energies=            -45.249826
 Sum of electronic and thermal Energies=               -45.246515
 Sum of electronic and thermal Enthalpies=             -45.245571
 Sum of electronic and thermal Free Energies=          -45.275843

                     E (Thermal)             CV                S
                      KCAL/MOL        CAL/MOL-KELVIN    CAL/MOL-KELVIN
 TOTAL                   34.507             10.156             63.713
 ELECTRONIC               0.000              0.000              0.000
 TRANSLATIONAL            0.889              2.981             38.656
 ROTATIONAL               0.889              2.981             23.792
 VIBRATIONAL             32.730              4.194              1.265
                       Q            LOG10(Q)             LN(Q)
 TOTAL BOT       0.157090D-11        -11.803850        -27.179370
 TOTAL V=0       0.927112D+12         11.967132         27.555341
 VIB (BOT)       0.193021D-23        -23.714396        -54.604416
 VIB (V=0)       0.113916D+01          0.056586          0.130294
 ELECTRONIC      0.100000D+01          0.000000          0.000000
 TRANSLATIONAL   0.230339D+08          7.362368         16.952478
 ROTATIONAL      0.353329D+05          4.548179         10.472569
 ***** Axes restored to original set *****
 -------------------------------------------------------------------
 Center     Atomic                   Forces (Hartrees/Bohr)
 Number     Number              X              Y              Z
 -------------------------------------------------------------------
    1          7           0.000471057   -0.000055905    0.000000000
    2          7          -0.000115513    0.000246587    0.000000000
    3          7           0.000055583    0.000084906    0.000000000
    4          1          -0.000016372    0.000062050    0.000000000
    5          7          -0.000272172   -0.000462235    0.000000000
    6          6          -0.000184901    0.000193360    0.000000000
    7          1           0.000062318   -0.000068761    0.000000000
 -------------------------------------------------------------------
 Cartesian Forces:  Max     0.000471057 RMS     0.000180147

 GradGradGradGradGradGradGradGradGradGradGradGradGradGradGradGradGradGrad
 Berny optimization.
 Internal  Forces:  Max     0.000393817 RMS     0.000136273
 Search for a local minimum.
 Step number   1 out of a maximum of  36
 All quantities printed in internal units (Hartrees-Bohrs-Radians)
 Second derivative matrix not updated -- analytic derivatives used.
     Eigenvalues ---    0.00946   0.03247   0.08230   0.08817   0.12006
     Eigenvalues ---    0.12484   0.26716   0.31952   0.42713   0.43322
     Eigenvalues ---    0.53142   0.54857   0.59683   0.69398   0.77590
     Eigenvalues --- 1000.000001000.000001000.000001000.000001000.00000
     Eigenvalues --- 1000.000001000.000001000.000001000.000001000.00000
     Eigenvalues --- 1000.00000
 Angle between quadratic step and forces=  24.35 degrees.
 Linear search not attempted -- first point.
 Iteration  1 RMS(Cart)=  0.00024914 RMS(Int)=  0.00000006
 Iteration  2 RMS(Cart)=  0.00000005 RMS(Int)=  0.00000002
 Variable       Old X    -DE/DX   Delta X   Delta X   Delta X     New X
                                 (Linear)    (Quad)   (Total)
    R1        2.39316   0.00011   0.00000   0.00009   0.00009   2.39324
    R2        2.55276  -0.00012   0.00000  -0.00028  -0.00028   2.55247
    R3        2.52729  -0.00006   0.00000   0.00018   0.00018   2.52747
    R4        1.88951   0.00004   0.00000   0.00007   0.00007   1.88959
    R5        2.53202   0.00017   0.00000   0.00001   0.00001   2.53203
    R6        2.45754   0.00016   0.00000   0.00036   0.00036   2.45790
    R7        2.03072   0.00008   0.00000   0.00021   0.00021   2.03093
    A1        1.94354   0.00039   0.00000   0.00075   0.00075   1.94429
    A2        1.86057  -0.00018   0.00000  -0.00036  -0.00036   1.86021
    A3        2.10456  -0.00002   0.00000  -0.00014  -0.00014   2.10442
    A4        1.88473  -0.00005   0.00000  -0.00015  -0.00015   1.88458
    A5        2.29389   0.00007   0.00000   0.00030   0.00030   2.29419
    A6        1.84530  -0.00036   0.00000  -0.00069  -0.00069   1.84461
    A7        1.89063   0.00020   0.00000   0.00046   0.00046   1.89109
    A8        2.18233  -0.00006   0.00000   0.00006   0.00006   2.18239
    A9        2.21023  -0.00014   0.00000  -0.00052  -0.00052   2.20971
    D1        0.00000   0.00000   0.00000   0.00000   0.00000   0.00000
    D2        0.00000   0.00000   0.00000   0.00000   0.00000   0.00000
    D3        3.14159   0.00000   0.00000   0.00000   0.00000   3.14159
    D4        0.00000   0.00000   0.00000   0.00000   0.00000   0.00000
    D5        0.00000   0.00000   0.00000   0.00000   0.00000   0.00000
    D6        3.14159   0.00000   0.00000   0.00000   0.00000   3.14159
    D7        3.14159   0.00000   0.00000   0.00000   0.00000   3.14159
    D8        0.00000   0.00000   0.00000   0.00000   0.00000   0.00000
    D9        0.00000   0.00000   0.00000   0.00000   0.00000   0.00000
   D10        3.14159   0.00000   0.00000   0.00000   0.00000   3.14159
         Item               Value     Threshold  Converged?
 Maximum Force            0.000394     0.000450     YES
 RMS     Force            0.000136     0.000300     YES
 Maximum Displacement     0.000700     0.001800     YES
 RMS     Displacement     0.000249     0.001200     YES
 Predicted change in Energy=-4.566014D-07
 Optimization completed.
    -- Stationary point found.
                         ----------------------------
                         !   Optimized Parameters   !
                         ! (Angstroms and Degrees)  !
 ------------------------                            -------------------------
 ! Name  Definition              Value          Derivative Info.             !
 -----------------------------------------------------------------------------
 ! R1    R(1,2)                  1.2664         -DE/DX =    0.0001           !
 ! R2    R(1,5)                  1.3509         -DE/DX =   -0.0001           !
 ! R3    R(2,3)                  1.3374         -DE/DX =   -0.0001           !
 ! R4    R(3,4)                  0.9999         -DE/DX =    0.               !
 ! R5    R(3,6)                  1.3399         -DE/DX =    0.0002           !
 ! R6    R(5,6)                  1.3005         -DE/DX =    0.0002           !
 ! R7    R(6,7)                  1.0746         -DE/DX =    0.0001           !
 ! A1    A(2,1,5)              111.3567         -DE/DX =    0.0004           !
 ! A2    A(1,2,3)              106.6028         -DE/DX =   -0.0002           !
 ! A3    A(2,3,4)              120.5824         -DE/DX =    0.               !
 ! A4    A(2,3,6)              107.9873         -DE/DX =   -0.0001           !
 ! A5    A(4,3,6)              131.4303         -DE/DX =    0.0001           !
 ! A6    A(1,5,6)              105.7281         -DE/DX =   -0.0004           !
 ! A7    A(3,6,5)              108.3251         -DE/DX =    0.0002           !
 ! A8    A(3,6,7)              125.0383         -DE/DX =   -0.0001           !
 ! A9    A(5,6,7)              126.6367         -DE/DX =   -0.0001           !
 ! D1    D(5,1,2,3)              0.             -DE/DX =    0.               !
 ! D2    D(2,1,5,6)              0.             -DE/DX =    0.               !
 ! D3    D(1,2,3,4)            180.             -DE/DX =    0.               !
 ! D4    D(1,2,3,6)              0.             -DE/DX =    0.               !
 ! D5    D(2,3,6,5)              0.             -DE/DX =    0.               !
 ! D6    D(2,3,6,7)            180.             -DE/DX =    0.               !
 ! D7    D(4,3,6,5)            180.             -DE/DX =    0.               !
 ! D8    D(4,3,6,7)              0.             -DE/DX =    0.               !
 ! D9    D(1,5,6,3)              0.             -DE/DX =    0.               !
 ! D10   D(1,5,6,7)            180.             -DE/DX =    0.               !
 -----------------------------------------------------------------------------
 GradGradGradGradGradGradGradGradGradGradGradGradGradGradGradGradGradGrad

 1\1\GINC-PLUMBUM\Freq\RHF\CEP-31G(d)\C1H2N4\RDJ3\31-Aug-2000\0\\#N GEO
 M=ALLCHECK GUESS=TCHECK RHF/CEP-31G(D) FREQ\\1H tetrazole c CH-NH-N=N-
 N= casno=288948\\0,1\N,-1.1570686346,-0.272550941,0.\N,-0.7006291188,0
 .9087383283,0.\N,0.6325877487,0.8032659068,0.\H,1.2076107192,1.6212663
 47,0.\N,-0.1608365897,-1.1848801586,0.\C,0.9445595742,-0.4997979981,0.
 \H,1.9438839564,-0.8949400323,0.\\Version=IBM-RS6000-G98RevA.6\State=1
 -A'\HF=-45.3015055\RMSD=5.093e-10\RMSF=1.801e-04\Dipole=2.0865441,0.89
 7167,0.\DipoleDeriv=0.0040523,-0.2389326,0.,-0.2224113,0.1432245,0.,0.
 ,0.,-0.1517618,0.2736371,0.3297711,0.,0.2748507,-0.377878,0.,0.,0.,-0.
 0911649,-0.429106,-0.3756772,0.,-0.2359377,-0.3520065,0.,0.,0.,-0.2225
 689,0.248293,0.0789743,0.,0.052964,0.3054367,0.,0.,0.,0.3876654,-0.539
 6523,0.1853041,0.,-0.1002628,-0.3899932,0.,0.,0.,-0.2573683,0.4227261,
 -0.0047955,0.,0.2035265,0.5577147,0.,0.,0.,0.1557609,0.0200498,0.02535
 58,0.,0.0272705,0.1135019,0.,0.,0.,0.1794376\Polar=36.824788,0.3166037
 ,36.248921,0.,0.,17.207012\PolarDeriv=-8.4893389,-3.6389423,-1.4240516
 ,0.,0.,-0.5539266,-2.9142333,2.9852759,-5.9379584,0.,0.,-0.3680875,0.,
 0.,0.,-3.1224307,-1.5684943,0.,-1.7077473,1.3391496,-1.8122031,0.,0.,0
 .6391934,3.4419676,-5.0446802,11.4959562,0.,0.,0.2945243,0.,0.,0.,-1.5
 866032,3.4438152,0.,-0.3689471,0.3823229,-0.1821446,0.,0.,0.0196194,1.
 3032148,1.3474973,-1.568647,0.,0.,0.7175822,0.,0.,0.,1.090854,1.992304
 7,0.,2.9312212,2.5316565,2.441746,0.,0.,-0.0917799,1.9532278,2.9089759
 ,5.8004583,0.,0.,0.199062,0.,0.,0.,0.3197317,0.5220285,0.,-3.531135,3.
 2453254,-2.8877038,0.,0.,-0.3114019,-1.8278111,-1.531546,-8.8576646,0.
 ,0.,-0.8023441,0.,0.,0.,-1.4182907,-2.7388605,0.,3.7516986,-1.4543458,
 2.2677169,0.,0.,0.3233685,0.0783392,-2.562606,0.6936558,0.,0.,0.135234
 7,0.,0.,0.,4.819543,-1.6443621,0.,7.4142485,-2.4051664,1.5966402,0.,0.
 ,-0.0250728,-2.034705,1.8970831,-1.6258003,0.,0.,-0.1759716,0.,0.,0.,-
 0.1028041,-0.0064315,0.\HyperPolar=29.9413285,3.9968255,4.2443416,19.0
 606005,0.,0.,0.,20.7326907,-6.4614618,0.\PG=CS [SG(C1H2N4)]\NImag=0\\0
 .69075609,0.13072942,0.70049153,0.,0.,0.14436398,-0.19273581,-0.162006
 59,0.,0.56324864,-0.11087002,-0.49861019,0.,0.00867458,0.83589310,0.,0
 .,-0.11280133,0.,0.,0.13334708,-0.12386492,-0.13178008,0.,-0.30678321,
 0.02749739,0.,0.82656847,-0.03047130,-0.07996570,0.,0.07698337,-0.1427
 4440,0.,0.22482288,1.08414644,0.,0.,0.03155398,0.,0.,-0.07860257,0.,0.
 ,0.10585370,-0.01304332,0.00036123,0.,-0.00436680,-0.03793539,0.,-0.23
 030414,-0.20499669,0.,0.22840613,0.00818551,0.00413637,0.,0.00148169,0
 .01549476,0.,-0.21433318,-0.39654741,0.,0.22440994,0.38962422,0.,0.,0.
 00861691,0.,0.,-0.01352574,0.,0.,-0.00827161,0.,0.,0.01571468,-0.22648
 976,0.08227913,0.,0.01504686,0.11365555,0.,-0.00799558,-0.14256880,0.,
 0.00209183,0.00103361,0.,0.62342133,0.05342795,-0.18214566,0.,-0.02594
 142,-0.13730193,0.,0.00927595,-0.09301269,0.,0.00944266,-0.00715692,0.
 ,0.11151979,0.65753896,0.,0.,-0.10354870,0.,0.,0.04140729,0.,0.,0.0248
 5842,0.,0.,0.00871752,0.,0.,0.12683214,-0.13055359,0.08247698,0.,-0.07
 493035,0.00144018,0.,-0.16416222,0.07934197,0.,0.01755900,-0.02135057,
 0.,-0.39114993,-0.17093962,0.,1.10812838,-0.04390848,0.05684666,0.,0.1
 0191051,-0.06521545,0.,0.04817815,-0.36722114,0.,0.00893328,-0.0053412
 4,0.,-0.14663645,-0.25518942,0.,-0.08854234,0.75085547,0.,0.,0.0211223
 4,0.,0.,0.02298700,0.,0.,-0.07503858,0.,0.,-0.01003881,0.,0.,-0.094571
 88,0.,0.,0.17857051,-0.00406870,-0.00206009,0.,0.00052067,-0.00246230,
 0.,0.00654161,-0.00311144,0.,-0.00034270,0.00057300,0.,-0.01492476,0.0
 1321468,0.,-0.36489128,0.12006533,0.,0.37716515,-0.00709309,-0.0007530
 1,0.,-0.00110214,-0.00751588,0.,0.03633889,-0.00465511,0.,-0.00021504,
 -0.00020978,0.,-0.01928282,0.01726766,0.,0.11757341,-0.11473487,0.,-0.
 12621919,0.11060099,0.,0.,0.01069282,0.,0.,0.00718827,0.,0.,-0.0003533
 5,0.,0.,-0.00121296,0.,0.,-0.00369479,0.,0.,-0.04303057,0.,0.,0.030410
 59\\-0.00047106,0.00005591,0.,0.00011551,-0.00024659,0.,-0.00005558,-0
 .00008491,0.,0.00001637,-0.00006205,0.,0.00027217,0.00046224,0.,0.0001
 8490,-0.00019336,0.,-0.00006232,0.00006876,0.\\\@

 ALL MEN WHO EXPLORE
 DEPLORE
 THAT FRUSTRATING HURDLE
 THE GIRDLE.

         -- COLIN FLETCHER
 Job cpu time:  0 days  0 hours  1 minutes 48.0 seconds.
 File lengths (MBytes):  RWF=   16 Int=    0 D2E=    0 Chk=    8 Scr=    1
 Normal termination of Gaussian 98.
