 Gaussian 98, Revision A.6,
 Gaussian 98:  IBM-RS6000-G98RevA.6 19-Oct-1998

 ---------------------
 #HF/CEP-121G opt freq
 ---------------------

 ----------------------------------------
 1H tetrazole c CH-NH-N=N-N= casno=288948
 ----------------------------------------
 Symbolic Z-matrix:
 Charge =  0 Multiplicity = 1

 SCF Done:  E(RHF) =  -45.1454271938     A.U. after   15 cycles
 SCF Done:  E(RHF) =  -45.1520367447     A.U. after   13 cycles
 SCF Done:  E(RHF) =  -45.1519979303     A.U. after   13 cycles
 SCF Done:  E(RHF) =  -45.1523729565     A.U. after   12 cycles
 SCF Done:  E(RHF) =  -45.1523751863     A.U. after   10 cycles
 SCF Done:  E(RHF) =  -45.1523778696     A.U. after    9 cycles
 Optimization completed.
    -- Stationary point found.
 Normal termination of Gaussian 98.

 -----------------------------------------------
 #N Geom=AllCheck Guess=TCheck RHF/CEP-121G Freq
 -----------------------------------------------

 1H tetrazole c CH-NH-N=N-N= casno=288948
 ----------------------------------------
 Redundant internal coordinates taken from checkpointfile:
 /wrk/rdj3/Gau-18172.chk
 Charge =  0 Multiplicity = 1

                         Standard orientation:
 ---------------------------------------------------------------------
 Center     Atomic     Atomic              Coordinates (Angstroms)
 Number     Number      Type              X           Y           Z
 ---------------------------------------------------------------------
    1          7             0       -0.753349   -0.951905    0.000000
    2          7             0       -1.136183    0.279364    0.000000
    3          7             0        0.000000    1.034948    0.000000
    4          1             0       -0.054448    2.023995    0.000000
    5          7             0        0.627216   -1.034317    0.000000
    6          6             0        1.069016    0.206568    0.000000
    7          1             0        2.089966    0.509284    0.000000
 ---------------------------------------------------------------------

 SCF Done:  E(RHF) =  -45.1523778696     A.U. after    1 cycles

  The electronic state is 1-A'.
 Alpha  occ. eigenvalues --   -1.54680  -1.28952  -1.24234  -0.93004  -0.90723
 Alpha  occ. eigenvalues --   -0.82058  -0.69071  -0.69024  -0.57313  -0.47943
 Alpha  occ. eigenvalues --   -0.47621  -0.46991  -0.43811
 Alpha virt. eigenvalues --    0.10839   0.11526   0.15645   0.15807   0.25782
 Alpha virt. eigenvalues --    0.27359   0.32584   0.40235   0.43041   0.49253
 Alpha virt. eigenvalues --    0.52653   0.55642   0.61452   0.62869   0.64995

  Exact polarizability:  37.210   0.718  37.426   0.000   0.000  18.083
 Approx polarizability:  37.239   0.318  40.173   0.000   0.000  16.566

                     1                      2                      3
                    A"                     A"                     A"
 Frequencies --   714.2573               773.9960               799.4249
 Red. masses --     4.2325                10.8031                 1.1235
 Frc consts  --     1.2722                 3.8131                 0.4230
 IR Inten    --    18.7712                 0.5517               171.1907
 Raman Activ --     0.5253                 0.2595                 0.0682

                     4                      5                      6
                    A"                     A'                     A'
 Frequencies --   987.5981              1041.1269              1097.6785
 Red. masses --     1.4022                 6.3623                 7.6055
 Frc consts  --     0.8058                 4.0632                 5.3992
 IR Inten    --    11.8772                 1.7540                 8.0812
 Raman Activ --     0.2289                 3.5530                 4.2343

                     7                      8                      9
                    A'                     A'                     A'
 Frequencies --  1122.9458              1153.5039              1232.9321
 Red. masses --     3.6770                 5.1379                 2.0344
 Frc consts  --     2.7319                 4.0279                 1.8221
 IR Inten    --    33.9919                22.3788                17.1565
 Raman Activ --     4.5008                 9.5622                 4.1633

                    10                     11                     12
                    A'                     A'                     A'
 Frequencies --  1368.5049              1450.9010              1536.0368
 Red. masses --     2.7116                 7.3728                 2.9869
 Frc consts  --     2.9921                 9.1445                 4.1522
 IR Inten    --     2.0938                21.3791                 7.4533
 Raman Activ --    15.8380                21.3014                12.9194

                    13                     14                     15
                    A'                     A'                     A'
 Frequencies --  1660.5421              3478.6362              3943.8737
 Red. masses --     2.2873                 1.1074                 1.0868
 Frc consts  --     3.7160                 7.8951                 9.9601
 IR Inten    --    43.7181                 2.6272               138.5728
 Raman Activ --     3.5804                60.5989                62.0951

 - Thermochemistry -
 -------------------
 Temperature   298.150 Kelvin.  Pressure   1.00000 Atm.
 Atom  1 has atomic number  7 and mass  14.00307

 Molecular mass:    70.02795 amu.
 Principal axes and moments of inertia in atomic units:
                           1         2         3
     EIGENVALUES --   172.79400 176.91746 349.71146
           X            0.99904   0.04375   0.00000
           Y           -0.04375   0.99904   0.00000
           Z            0.00000   0.00000   1.00000
 THIS MOLECULE IS AN ASYMMETRIC TOP.
 ROTATIONAL SYMMETRY NUMBER  1.
 ROTATIONAL TEMPERATURES (KELVIN)      0.50125     0.48957     0.24767
 ROTATIONAL CONSTANTS (GHZ)           10.44447    10.20103     5.16066
 Zero-point vibrational energy     133754.2 (Joules/Mol)
                                   31.96803 (Kcal/Mol)
 VIBRATIONAL TEMPERATURES:   1027.65  1113.60  1150.19  1420.93  1497.94
          (KELVIN)           1579.31  1615.66  1659.63  1773.90  1968.96
                             2087.51  2210.00  2389.14  5004.95  5674.32

 Zero-point correction=                           0.050944 (Hartree/Particle)
 Thermal correction to Energy=                    0.054223
 Thermal correction to Enthalpy=                  0.055167
 Thermal correction to Gibbs Free Energy=         0.024900
 Sum of electronic and zero-point Energies=            -45.101434
 Sum of electronic and thermal Energies=               -45.098155
 Sum of electronic and thermal Enthalpies=             -45.097211
 Sum of electronic and thermal Free Energies=          -45.127478

                     E (Thermal)             CV                S
                      KCAL/MOL        CAL/MOL-KELVIN    CAL/MOL-KELVIN
 TOTAL                   34.025             10.115             63.702
 ELECTRONIC               0.000              0.000              0.000
 TRANSLATIONAL            0.889              2.981             38.656
 ROTATIONAL               0.889              2.981             23.884
 VIBRATIONAL             32.248              4.153              1.161
                       Q            LOG10(Q)             LN(Q)
 TOTAL BOT       0.352230D-11        -11.453173        -26.371906
 TOTAL V=0       0.953712D+12         11.979417         27.583628
 VIB (BOT)       0.413148D-23        -23.383895        -53.843407
 VIB (V=0)       0.111865D+01          0.048696          0.112126
 ELECTRONIC      0.100000D+01          0.000000          0.000000
 TRANSLATIONAL   0.230339D+08          7.362368         16.952478
 ROTATIONAL      0.370130D+05          4.568354         10.519024
 ***** Axes restored to original set *****
 -------------------------------------------------------------------
 Center     Atomic                   Forces (Hartrees/Bohr)
 Number     Number              X              Y              Z
 -------------------------------------------------------------------
    1          7          -0.000062599    0.000269460    0.000000000
    2          7          -0.000225352   -0.000283871    0.000000000
    3          7           0.000231701    0.000060203    0.000000000
    4          1           0.000008103    0.000022901    0.000000000
    5          7           0.000014997   -0.000088294    0.000000000
    6          6           0.000024822    0.000031758    0.000000000
    7          1           0.000008329   -0.000012158    0.000000000
 -------------------------------------------------------------------
 Cartesian Forces:  Max     0.000283871 RMS     0.000114571

 GradGradGradGradGradGradGradGradGradGradGradGradGradGradGradGradGradGrad
 Berny optimization.
 Internal  Forces:  Max     0.000210428 RMS     0.000068259
 Search for a local minimum.
 Step number   1 out of a maximum of  36
 All quantities printed in internal units (Hartrees-Bohrs-Radians)
 Second derivative matrix not updated -- analytic derivatives used.
     Eigenvalues ---    0.01371   0.03233   0.08311   0.08884   0.11671
     Eigenvalues ---    0.13054   0.24449   0.27809   0.38807   0.42196
     Eigenvalues ---    0.50110   0.53443   0.55352   0.67457   0.71518
     Eigenvalues --- 1000.000001000.000001000.000001000.000001000.00000
     Eigenvalues --- 1000.000001000.000001000.000001000.000001000.00000
     Eigenvalues --- 1000.00000
 Angle between quadratic step and forces=  25.19 degrees.
 Linear search not attempted -- first point.
 Iteration  1 RMS(Cart)=  0.00014895 RMS(Int)=  0.00000002
 Iteration  2 RMS(Cart)=  0.00000001 RMS(Int)=  0.00000001
 Variable       Old X    -DE/DX   Delta X   Delta X   Delta X     New X
                                 (Linear)    (Quad)   (Total)
    R1        2.43664  -0.00021   0.00000  -0.00054  -0.00054   2.43609
    R2        2.61353   0.00010   0.00000   0.00043   0.00043   2.61396
    R3        2.57850   0.00019   0.00000   0.00058   0.00058   2.57909
    R4        1.87186   0.00002   0.00000   0.00004   0.00004   1.87189
    R5        2.55568   0.00000   0.00000   0.00003   0.00003   2.55572
    R6        2.48912   0.00008   0.00000   0.00006   0.00006   2.48918
    R7        2.01234   0.00001   0.00000   0.00004   0.00004   2.01238
    A1        1.93187  -0.00003   0.00000   0.00003   0.00003   1.93190
    A2        1.85621   0.00010   0.00000   0.00019   0.00019   1.85640
    A3        2.10266   0.00004   0.00000   0.00000   0.00000   2.10267
    A4        1.89548  -0.00008   0.00000  -0.00028  -0.00028   1.89521
    A5        2.28504   0.00005   0.00000   0.00027   0.00027   2.28531
    A6        1.85322   0.00002   0.00000  -0.00010  -0.00010   1.85312
    A7        1.88800  -0.00001   0.00000   0.00016   0.00016   1.88816
    A8        2.19410   0.00001   0.00000   0.00004   0.00004   2.19414
    A9        2.20108   0.00000   0.00000  -0.00020  -0.00020   2.20088
    D1        0.00000   0.00000   0.00000   0.00000   0.00000   0.00000
    D2        0.00000   0.00000   0.00000   0.00000   0.00000   0.00000
    D3        3.14159   0.00000   0.00000   0.00000   0.00000   3.14159
    D4        0.00000   0.00000   0.00000   0.00000   0.00000   0.00000
    D5        0.00000   0.00000   0.00000   0.00000   0.00000   0.00000
    D6        3.14159   0.00000   0.00000   0.00000   0.00000   3.14159
    D7        3.14159   0.00000   0.00000   0.00000   0.00000   3.14159
    D8        0.00000   0.00000   0.00000   0.00000   0.00000   0.00000
    D9        0.00000   0.00000   0.00000   0.00000   0.00000   0.00000
   D10        3.14159   0.00000   0.00000   0.00000   0.00000   3.14159
         Item               Value     Threshold  Converged?
 Maximum Force            0.000210     0.000450     YES
 RMS     Force            0.000068     0.000300     YES
 Maximum Displacement     0.000330     0.001800     YES
 RMS     Displacement     0.000149     0.001200     YES
 Predicted change in Energy=-1.644538D-07
 Optimization completed.
    -- Stationary point found.
                         ----------------------------
                         !   Optimized Parameters   !
                         ! (Angstroms and Degrees)  !
 ------------------------                            -------------------------
 ! Name  Definition              Value          Derivative Info.             !
 -----------------------------------------------------------------------------
 ! R1    R(1,2)                  1.2894         -DE/DX =   -0.0002           !
 ! R2    R(1,5)                  1.383          -DE/DX =    0.0001           !
 ! R3    R(2,3)                  1.3645         -DE/DX =    0.0002           !
 ! R4    R(3,4)                  0.9905         -DE/DX =    0.               !
 ! R5    R(3,6)                  1.3524         -DE/DX =    0.               !
 ! R6    R(5,6)                  1.3172         -DE/DX =    0.0001           !
 ! R7    R(6,7)                  1.0649         -DE/DX =    0.               !
 ! A1    A(2,1,5)              110.688          -DE/DX =    0.               !
 ! A2    A(1,2,3)              106.3528         -DE/DX =    0.0001           !
 ! A3    A(2,3,4)              120.4737         -DE/DX =    0.               !
 ! A4    A(2,3,6)              108.6032         -DE/DX =   -0.0001           !
 ! A5    A(4,3,6)              130.9231         -DE/DX =    0.               !
 ! A6    A(1,5,6)              106.1814         -DE/DX =    0.               !
 ! A7    A(3,6,5)              108.1745         -DE/DX =    0.               !
 ! A8    A(3,6,7)              125.7126         -DE/DX =    0.               !
 ! A9    A(5,6,7)              126.1129         -DE/DX =    0.               !
 ! D1    D(5,1,2,3)              0.             -DE/DX =    0.               !
 ! D2    D(2,1,5,6)              0.             -DE/DX =    0.               !
 ! D3    D(1,2,3,4)            180.             -DE/DX =    0.               !
 ! D4    D(1,2,3,6)              0.             -DE/DX =    0.               !
 ! D5    D(2,3,6,5)              0.             -DE/DX =    0.               !
 ! D6    D(2,3,6,7)            180.             -DE/DX =    0.               !
 ! D7    D(4,3,6,5)            180.             -DE/DX =    0.               !
 ! D8    D(4,3,6,7)              0.             -DE/DX =    0.               !
 ! D9    D(1,5,6,3)              0.             -DE/DX =    0.               !
 ! D10   D(1,5,6,7)            180.             -DE/DX =    0.               !
 -----------------------------------------------------------------------------
 GradGradGradGradGradGradGradGradGradGradGradGradGradGradGradGradGradGrad

 1\1\GINC-FERRUM\Freq\RHF\CEP-121G\C1H2N4\RDJ3\31-Aug-2000\0\\#N GEOM=A
 LLCHECK GUESS=TCHECK RHF/CEP-121G FREQ\\1H tetrazole c CH-NH-N=N-N= ca
 sno=288948\\0,1\N,-1.1819506368,-0.2768580332,0.\N,-0.7159514641,0.925
 4024458,0.\N,0.643681218,0.81042756,0.\H,1.2161778818,1.6187747867,0.\
 N,-0.1521405685,-1.2000268472,0.\C,0.965578161,-0.5031140445,0.\H,1.95
 33167309,-0.9010442356,0.\\Version=IBM-RS6000-G98RevA.6\State=1-A'\HF=
 -45.1523779\RMSD=1.921e-09\RMSF=1.146e-04\Dipole=2.2641386,0.9405665,0
 .\DipoleDeriv=0.0957885,-0.2009085,0.,-0.1722704,0.0360884,0.,0.,0.,-0
 .1706483,0.3085021,0.2961047,0.,0.2102455,-0.3181896,0.,0.,0.,-0.08831
 54,-0.4884053,-0.3648408,0.,-0.2256692,-0.372091,0.,0.,0.,-0.2706854,0
 .2647206,0.059095,0.,0.0437932,0.3037645,0.,0.,0.,0.4338258,-0.5521708
 ,0.1793133,0.,-0.1132843,-0.2600423,0.,0.,0.,-0.2561377,0.2915342,0.01
 67127,0.,0.2459237,0.4616637,0.,0.,0.,0.1484516,0.0800308,0.0145236,0.
 ,0.0112614,0.1488063,0.,0.,0.,0.2035094\Polar=37.9927195,0.2679937,36.
 6432732,0.,0.,18.082735\PolarDeriv=-9.9122037,-3.4587449,-2.295926,0.,
 0.,-0.5640586,-2.9877024,3.0962716,-5.5938329,0.,0.,0.0852482,0.,0.,0.
 ,-3.0861377,-1.6621164,0.,-2.299704,1.1989542,-2.4046665,0.,0.,0.47821
 79,4.3472023,-5.732091,12.7711389,0.,0.,0.1344021,0.,0.,0.,-1.3021079,
 3.5646683,0.,0.5664503,0.6872542,0.6240265,0.,0.,-0.8083687,1.6815374,
 1.9946774,-1.4478089,0.,0.,1.6951341,0.,0.,0.,0.9307212,1.3877544,0.,2
 .9130551,2.5002505,2.2714372,0.,0.,-0.0826419,1.9757058,2.7368132,5.64
 08532,0.,0.,0.0953216,0.,0.,0.,0.3556293,0.5301697,0.,-3.0784141,3.474
 8186,-2.2532103,0.,0.,-1.1744844,-2.7975758,-1.1616843,-10.9475757,0.,
 0.,-0.9975854,0.,0.,0.,-1.307746,-2.8924578,0.,4.3616356,-2.1097273,2.
 548052,0.,0.,1.637098,-0.3035975,-2.9703898,1.3145656,0.,0.,-0.7574409
 ,0.,0.,0.,3.9362457,-0.5710081,0.,7.4491807,-2.2928053,1.5102873,0.,0.
 ,0.5142377,-1.9155697,2.0364029,-1.7373402,0.,0.,-0.2550796,0.,0.,0.,0
 .4733953,-0.3570101,0.\HyperPolar=54.9535697,3.9510702,8.4023707,21.57
 1305,0.,0.,0.,21.3961648,-1.2309164,0.\PG=CS [SG(C1H2N4)]\NImag=0\\0.6
 1528744,0.12193951,0.58138591,0.,0.,0.13606449,-0.15947882,-0.14245179
 ,0.,0.48259162,-0.06941357,-0.41533376,0.,-0.00175197,0.74331343,0.,0.
 ,-0.10517114,0.,0.,0.12640781,-0.12738430,-0.11349744,0.,-0.25047737,0
 .00197339,0.,0.78691752,-0.03129199,-0.07469881,0.,0.06213068,-0.13870
 236,0.,0.25353772,1.05012135,0.,0.,0.02774069,0.,0.,-0.08123785,0.,0.,
 0.13268891,-0.01202022,0.00129456,0.,-0.00457221,-0.04000832,0.,-0.238
 49688,-0.20896063,0.,0.23556568,0.00954028,0.00411119,0.,0.00753586,0.
 01556016,0.,-0.22031415,-0.39904482,0.,0.22420094,0.39074215,0.,0.,0.0
 0822654,0.,0.,-0.00973626,0.,0.,-0.02174674,0.,0.,0.02181776,-0.180853
 79,0.06721813,0.,0.00229646,0.10085375,0.,-0.00268484,-0.13268500,0.,0
 .00071611,0.00220952,0.,0.54696723,0.01434561,-0.14104346,0.,-0.022416
 19,-0.13093544,0.,0.00107479,-0.10479960,0.,0.00944320,-0.00545552,0.,
 0.11054331,0.59060552,0.,0.,-0.09995510,0.,0.,0.03846152,0.,0.,0.02622
 586,0.,0.,0.00888901,0.,0.,0.12509836,-0.13377366,0.06727823,0.,-0.071
 75738,0.01215452,0.,-0.17594015,0.06491809,0.,0.01905019,-0.02412596,0
 .,-0.35483507,-0.12808245,0.,1.08431229,-0.03921900,0.04651103,0.,0.10
 052022,-0.06773165,0.,0.03951323,-0.32675235,0.,0.01449756,-0.00577405
 ,0.,-0.12583678,-0.22286648,0.,-0.11223038,0.68860949,0.,0.,0.02243025
 ,0.,0.,0.02510173,0.,0.,-0.08399734,0.,0.,-0.00619319,0.,0.,-0.0947196
 5,0.,0.,0.17887771,-0.00177664,-0.00178121,0.,0.00139771,-0.00380781,0
 .,0.00806602,-0.00764887,0.,-0.00024266,0.00095351,0.,-0.01160610,0.01
 509173,0.,-0.36705622,0.12275514,0.,0.37121790,-0.00590085,-0.00093209
 ,0.,-0.00356681,-0.00617036,0.,0.03771246,-0.00612339,0.,-0.00046732,-
 0.00013911,0.,-0.02230294,0.01449499,0.,0.12008794,-0.11199599,0.,-0.1
 2556249,0.11086595,0.,0.,0.01066428,0.,0.,0.00617421,0.,0.,0.00032647,
 0.,0.,-0.00125711,0.,0.,-0.00399999,0.,0.,-0.04149951,0.,0.,0.02959165
 \\0.00006260,-0.00026946,0.,0.00022535,0.00028387,0.,-0.00023170,-0.00
 006020,0.,-0.00000810,-0.00002290,0.,-0.00001500,0.00008829,0.,-0.0000
 2482,-0.00003176,0.,-0.00000833,0.00001216,0.\\\@

 IN NATURE THERE ARE NEITHER REWARDS OR
 PUNISHMENTS -- THERE ARE CONSEQUENCES.

                            -- ROBERT GREEN INGERSOLL
 Job cpu time:  0 days  0 hours  1 minutes 17.3 seconds.
 File lengths (MBytes):  RWF=   16 Int=    0 D2E=    0 Chk=    8 Scr=    1
 Normal termination of Gaussian 98.
