 Gaussian 98, Revision A.6,
 Gaussian 98:  IBM-RS6000-G98RevA.6 19-Oct-1998

 --------------------
 #HF/LANL2DZ opt freq
 --------------------

 ----------------------------------------
 1H tetrazole c CH-NH-N=N-N= casno=288948
 ----------------------------------------
 Symbolic Z-matrix:
 Charge =  0 Multiplicity = 1

 SCF Done:  E(RHF) =  -256.634371966     A.U. after   15 cycles
 SCF Done:  E(RHF) =  -256.638854911     A.U. after   13 cycles
 SCF Done:  E(RHF) =  -256.638872863     A.U. after   12 cycles
 SCF Done:  E(RHF) =  -256.639249299     A.U. after   12 cycles
 SCF Done:  E(RHF) =  -256.639252491     A.U. after   11 cycles
 SCF Done:  E(RHF) =  -256.639255188     A.U. after   10 cycles
 Optimization completed.
    -- Stationary point found.
 Normal termination of Gaussian 98.

 ----------------------------------------------
 #N Geom=AllCheck Guess=TCheck RHF/LANL2DZ Freq
 ----------------------------------------------

 1H tetrazole c CH-NH-N=N-N= casno=288948
 ----------------------------------------
 Redundant internal coordinates taken from checkpointfile:
 /wrk/rdj3/Gau-17322.chk
 Charge =  0 Multiplicity = 1

                         Standard orientation:
 ---------------------------------------------------------------------
 Center     Atomic     Atomic              Coordinates (Angstroms)
 Number     Number      Type              X           Y           Z
 ---------------------------------------------------------------------
    1          7             0       -0.730501   -0.929867    0.000000
    2          7             0       -1.122610    0.290515    0.000000
    3          7             0        0.000000    1.057891    0.000000
    4          1             0       -0.070902    2.046301    0.000000
    5          7             0        0.643902   -0.997263    0.000000
    6          6             0        1.074218    0.242288    0.000000
    7          1             0        2.090062    0.551041    0.000000
 ---------------------------------------------------------------------

 SCF Done:  E(RHF) =  -256.639255188     A.U. after    1 cycles

  The electronic state is 1-A'.
 Alpha  occ. eigenvalues --  -15.69041 -15.68908 -15.66721 -15.62619 -11.36615
 Alpha  occ. eigenvalues --   -1.54414  -1.28275  -1.23707  -0.92742  -0.90580
 Alpha  occ. eigenvalues --   -0.82258  -0.69485  -0.69245  -0.57605  -0.48147
 Alpha  occ. eigenvalues --   -0.47627  -0.47268  -0.44019
 Alpha virt. eigenvalues --    0.10920   0.16068   0.20617   0.25936   0.28293
 Alpha virt. eigenvalues --    0.32153   0.40593   0.44498   0.46814   0.53607
 Alpha virt. eigenvalues --    0.55127   0.66170   0.67258   0.68693   0.70815

  Exact polarizability:  35.965   0.688  36.357   0.000   0.000  14.542
 Approx polarizability:  35.883   0.270  38.924   0.000   0.000  12.981

                     1                      2                      3
                    A"                     A"                     A"
 Frequencies --   727.6053               789.1008               814.3546
 Red. masses --     3.7801                10.8082                 1.1423
 Frc consts  --     1.1791                 3.9652                 0.4463
 IR Inten    --    12.2285                 5.5734               199.5912
 Raman Activ --     0.7290                 0.3906                 0.2324

                     4                      5                      6
                    A"                     A'                     A'
 Frequencies --  1011.2274              1046.1275              1103.5494
 Red. masses --     1.4305                 6.8916                 6.2288
 Frc consts  --     0.8619                 4.4437                 4.4693
 IR Inten    --     7.0956                 2.8455                23.2334
 Raman Activ --     0.6857                 3.6056                 4.5474

                     7                      8                      9
                    A'                     A'                     A'
 Frequencies --  1117.0773              1159.7239              1242.5474
 Red. masses --     4.6956                 5.2735                 2.0030
 Frc consts  --     3.4523                 4.1788                 1.8221
 IR Inten    --    18.6463                19.4814                20.4129
 Raman Activ --     4.0482                 8.4627                 3.8984

                    10                     11                     12
                    A'                     A'                     A'
 Frequencies --  1380.6836              1452.9860              1545.4745
 Red. masses --     2.4910                 7.3541                 2.7852
 Frc consts  --     2.7978                 9.1475                 3.9195
 IR Inten    --     1.9013                24.4634                 7.4478
 Raman Activ --    12.8345                22.4321                13.2552

                    13                     14                     15
                    A'                     A'                     A'
 Frequencies --  1666.5000              3540.0024              3972.4030
 Red. masses --     2.3917                 1.1065                 1.0867
 Frc consts  --     3.9135                 8.1694                10.1038
 IR Inten    --    47.1787                 2.6543               176.8020
 Raman Activ --     3.0907                63.8588                61.0741

 - Thermochemistry -
 -------------------
 Temperature   298.150 Kelvin.  Pressure   1.00000 Atm.
 Atom  1 has atomic number  7 and mass  14.00307

 Molecular mass:    70.02795 amu.
 Principal axes and moments of inertia in atomic units:
                           1         2         3
     EIGENVALUES --   171.49262 175.42282 346.91543
           X            0.99988  -0.01532   0.00000
           Y            0.01532   0.99988   0.00000
           Z            0.00000   0.00000   1.00000
 THIS MOLECULE IS AN ASYMMETRIC TOP.
 ROTATIONAL SYMMETRY NUMBER  1.
 ROTATIONAL TEMPERATURES (KELVIN)      0.50506     0.49374     0.24967
 ROTATIONAL CONSTANTS (GHZ)           10.52373    10.28795     5.20225
 Zero-point vibrational energy     134994.8 (Joules/Mol)
                                   32.26453 (Kcal/Mol)
 VIBRATIONAL TEMPERATURES:   1046.86  1135.33  1171.67  1454.92  1505.14
          (KELVIN)           1587.75  1607.22  1668.57  1787.74  1986.48
                             2090.51  2223.58  2397.71  5093.24  5715.37

 Zero-point correction=                           0.051417 (Hartree/Particle)
 Thermal correction to Energy=                    0.054676
 Thermal correction to Enthalpy=                  0.055620
 Thermal correction to Gibbs Free Energy=         0.025390
 Sum of electronic and zero-point Energies=           -256.587838
 Sum of electronic and thermal Energies=              -256.584579
 Sum of electronic and thermal Enthalpies=            -256.583635
 Sum of electronic and thermal Free Energies=         -256.613865

                     E (Thermal)             CV                S
                      KCAL/MOL        CAL/MOL-KELVIN    CAL/MOL-KELVIN
 TOTAL                   34.310              9.990             63.624
 ELECTRONIC               0.000              0.000              0.000
 TRANSLATIONAL            0.889              2.981             38.656
 ROTATIONAL               0.889              2.981             23.860
 VIBRATIONAL             32.532              4.029              1.107
                       Q            LOG10(Q)             LN(Q)
 TOTAL BOT       0.209579D-11        -11.678652        -26.891091
 TOTAL V=0       0.935994D+12         11.971273         27.564875
 VIB (BOT)       0.248802D-23        -23.604147        -54.350556
 VIB (V=0)       0.111117D+01          0.045779          0.105410
 ELECTRONIC      0.100000D+01          0.000000          0.000000
 TRANSLATIONAL   0.230339D+08          7.362368         16.952478
 ROTATIONAL      0.365702D+05          4.563127         10.506988
 ***** Axes restored to original set *****
 -------------------------------------------------------------------
 Center     Atomic                   Forces (Hartrees/Bohr)
 Number     Number              X              Y              Z
 -------------------------------------------------------------------
    1          7           0.000035335    0.000256979    0.000000000
    2          7          -0.000281485   -0.000127794    0.000000000
    3          7           0.000216071    0.000110052    0.000000000
    4          1          -0.000002272    0.000024489    0.000000000
    5          7          -0.000011381   -0.000241337    0.000000000
    6          6           0.000035453   -0.000008720    0.000000000
    7          1           0.000008279   -0.000013669    0.000000000
 -------------------------------------------------------------------
 Cartesian Forces:  Max     0.000281485 RMS     0.000115926

 GradGradGradGradGradGradGradGradGradGradGradGradGradGradGradGradGradGrad
 Berny optimization.
 Internal  Forces:  Max     0.000191454 RMS     0.000068510
 Search for a local minimum.
 Step number   1 out of a maximum of  36
 All quantities printed in internal units (Hartrees-Bohrs-Radians)
 Second derivative matrix not updated -- analytic derivatives used.
     Eigenvalues ---    0.01433   0.03311   0.08588   0.09128   0.11924
     Eigenvalues ---    0.13158   0.24338   0.27277   0.38959   0.43711
     Eigenvalues ---    0.50599   0.53758   0.56048   0.68331   0.72583
     Eigenvalues --- 1000.000001000.000001000.000001000.000001000.00000
     Eigenvalues --- 1000.000001000.000001000.000001000.000001000.00000
     Eigenvalues --- 1000.00000
 Angle between quadratic step and forces=  20.72 degrees.
 Linear search not attempted -- first point.
 Iteration  1 RMS(Cart)=  0.00016127 RMS(Int)=  0.00000002
 Iteration  2 RMS(Cart)=  0.00000002 RMS(Int)=  0.00000001
 Variable       Old X    -DE/DX   Delta X   Delta X   Delta X     New X
                                 (Linear)    (Quad)   (Total)
    R1        2.42230  -0.00014   0.00000  -0.00046  -0.00046   2.42184
    R2        2.60037   0.00013   0.00000   0.00049   0.00049   2.60086
    R3        2.56969   0.00019   0.00000   0.00066   0.00066   2.57036
    R4        1.87262   0.00002   0.00000   0.00003   0.00003   1.87266
    R5        2.54879   0.00011   0.00000   0.00016   0.00016   2.54894
    R6        2.47955   0.00011   0.00000   0.00013   0.00013   2.47968
    R7        2.00638   0.00001   0.00000   0.00004   0.00004   2.00642
    A1        1.93068   0.00010   0.00000   0.00026   0.00026   1.93093
    A2        1.85952   0.00000   0.00000   0.00002   0.00002   1.85954
    A3        2.09879   0.00001   0.00000  -0.00003  -0.00003   2.09877
    A4        1.89259  -0.00005   0.00000  -0.00023  -0.00023   1.89235
    A5        2.29180   0.00004   0.00000   0.00026   0.00026   2.29206
    A6        1.85594  -0.00008   0.00000  -0.00027  -0.00027   1.85566
    A7        1.88606   0.00003   0.00000   0.00023   0.00023   1.88628
    A8        2.19713   0.00000   0.00000  -0.00002  -0.00002   2.19711
    A9        2.20000  -0.00002   0.00000  -0.00020  -0.00020   2.19979
    D1        0.00000   0.00000   0.00000   0.00000   0.00000   0.00000
    D2        0.00000   0.00000   0.00000   0.00000   0.00000   0.00000
    D3        3.14159   0.00000   0.00000   0.00000   0.00000   3.14159
    D4        0.00000   0.00000   0.00000   0.00000   0.00000   0.00000
    D5        0.00000   0.00000   0.00000   0.00000   0.00000   0.00000
    D6        3.14159   0.00000   0.00000   0.00000   0.00000   3.14159
    D7        3.14159   0.00000   0.00000   0.00000   0.00000   3.14159
    D8        0.00000   0.00000   0.00000   0.00000   0.00000   0.00000
    D9        0.00000   0.00000   0.00000   0.00000   0.00000   0.00000
   D10        3.14159   0.00000   0.00000   0.00000   0.00000   3.14159
         Item               Value     Threshold  Converged?
 Maximum Force            0.000191     0.000450     YES
 RMS     Force            0.000069     0.000300     YES
 Maximum Displacement     0.000418     0.001800     YES
 RMS     Displacement     0.000161     0.001200     YES
 Predicted change in Energy=-1.861431D-07
 Optimization completed.
    -- Stationary point found.
                         ----------------------------
                         !   Optimized Parameters   !
                         ! (Angstroms and Degrees)  !
 ------------------------                            -------------------------
 ! Name  Definition              Value          Derivative Info.             !
 -----------------------------------------------------------------------------
 ! R1    R(1,2)                  1.2818         -DE/DX =   -0.0001           !
 ! R2    R(1,5)                  1.3761         -DE/DX =    0.0001           !
 ! R3    R(2,3)                  1.3598         -DE/DX =    0.0002           !
 ! R4    R(3,4)                  0.991          -DE/DX =    0.               !
 ! R5    R(3,6)                  1.3488         -DE/DX =    0.0001           !
 ! R6    R(5,6)                  1.3121         -DE/DX =    0.0001           !
 ! R7    R(6,7)                  1.0617         -DE/DX =    0.               !
 ! A1    A(2,1,5)              110.6195         -DE/DX =    0.0001           !
 ! A2    A(1,2,3)              106.5429         -DE/DX =    0.               !
 ! A3    A(2,3,4)              120.2521         -DE/DX =    0.               !
 ! A4    A(2,3,6)              108.4372         -DE/DX =   -0.0001           !
 ! A5    A(4,3,6)              131.3107         -DE/DX =    0.               !
 ! A6    A(1,5,6)              106.3374         -DE/DX =   -0.0001           !
 ! A7    A(3,6,5)              108.063          -DE/DX =    0.               !
 ! A8    A(3,6,7)              125.8863         -DE/DX =    0.               !
 ! A9    A(5,6,7)              126.0507         -DE/DX =    0.               !
 ! D1    D(5,1,2,3)              0.             -DE/DX =    0.               !
 ! D2    D(2,1,5,6)              0.             -DE/DX =    0.               !
 ! D3    D(1,2,3,4)            180.             -DE/DX =    0.               !
 ! D4    D(1,2,3,6)              0.             -DE/DX =    0.               !
 ! D5    D(2,3,6,5)              0.             -DE/DX =    0.               !
 ! D6    D(2,3,6,7)            180.             -DE/DX =    0.               !
 ! D7    D(4,3,6,5)            180.             -DE/DX =    0.               !
 ! D8    D(4,3,6,7)              0.             -DE/DX =    0.               !
 ! D9    D(1,5,6,3)              0.             -DE/DX =    0.               !
 ! D10   D(1,5,6,7)            180.             -DE/DX =    0.               !
 -----------------------------------------------------------------------------
 GradGradGradGradGradGradGradGradGradGradGradGradGradGradGradGradGradGrad

 1\1\GINC-FERRUM\Freq\RHF\LANL2DZ\C1H2N4\RDJ3\05-Sep-2000\0\\#N GEOM=AL
 LCHECK GUESS=TCHECK RHF/LANL2DZ FREQ\\1H tetrazole c CH-NH-N=N-N= casn
 o=288948\\0,1\N,-1.1531383389,-0.2618345633,0.\N,-0.6887243178,0.93290
 48592,0.\N,0.6665280643,0.8215066327,0.\H,1.2342205408,1.6337304399,0.
 \N,-0.1283063442,-1.1801190147,0.\C,0.9868399893,-0.4886659894,0.\H,1.
 9702260801,-0.8889399014,0.\\Version=IBM-RS6000-G98RevA.6\State=1-A'\H
 F=-256.6392552\RMSD=1.656e-09\RMSF=1.159e-04\Dipole=2.2514712,0.941958
 2,0.\DipoleDeriv=0.0898575,-0.2011761,0.,-0.1751015,0.042042,0.,0.,0.,
 -0.1643974,0.3142604,0.2982145,0.,0.2146363,-0.316136,0.,0.,0.,-0.0808
 307,-0.514114,-0.3753613,0.,-0.2394038,-0.4226546,0.,0.,0.,-0.3198588,
 0.2907205,0.0719403,0.,0.0662278,0.3367132,0.,0.,0.,0.4573537,-0.54241
 18,0.1685974,0.,-0.1259673,-0.2655296,0.,0.,0.,-0.2601086,0.2858326,0.
 0228642,0.,0.2512874,0.4694147,0.,0.,0.,0.1659584,0.0758548,0.0149211,
 0.,0.0083211,0.1561503,0.,0.,0.,0.2018834\Polar=36.7938976,0.3335365,3
 5.5287763,0.,0.,14.5421527\PolarDeriv=-9.7068355,-3.3446446,-2.2218655
 ,0.,0.,-0.2774454,-3.1353263,3.1342853,-5.8286789,0.,0.,-0.1402072,0.,
 0.,0.,-3.1696738,-1.7895339,0.,-2.3072868,1.1283946,-2.1566355,0.,0.,0
 .288382,4.4261302,-5.659417,12.6600506,0.,0.,0.1363607,0.,0.,0.,-1.543
 8823,3.8091667,0.,0.4325865,0.6776269,0.337298,0.,0.,0.1050998,1.36269
 3,1.9341988,-1.311862,0.,0.,0.2226636,0.,0.,0.,0.5994304,1.9606594,0.,
 2.8413354,2.530936,2.2956667,0.,0.,0.0505875,1.7757134,2.7557283,5.536
 1006,0.,0.,0.2079032,0.,0.,0.,0.5057312,0.6364424,0.,-3.3879196,3.3719
 023,-2.224458,0.,0.,0.4121831,-2.3031249,-1.3656368,-10.5134946,0.,0.,
 -0.3798807,0.,0.,0.,-1.9537427,-3.0379156,0.,4.5767045,-1.9661947,2.41
 11656,0.,0.,-1.1547349,-0.3139732,-2.8759012,1.2504082,0.,0.,0.3586317
 ,0.,0.,0.,5.263785,-1.3879453,0.,7.5514155,-2.3980204,1.5588287,0.,0.,
 0.5759278,-1.8121122,2.0767427,-1.7925239,0.,0.,-0.4054713,0.,0.,0.,0.
 2983521,-0.1908738,0.\HyperPolar=37.0328434,6.7168706,4.6207121,21.128
 4047,0.,0.,0.,15.0720337,-2.1662817,0.\PG=CS [SG(C1H2N4)]\NImag=0\\0.6
 1753905,0.12620635,0.58081719,0.,0.,0.14124237,-0.15796715,-0.14406232
 ,0.,0.47253089,-0.06889861,-0.41498385,0.,-0.00065950,0.75006999,0.,0.
 ,-0.10947436,0.,0.,0.13172193,-0.13265192,-0.11470833,0.,-0.23596159,-
 0.00367782,0.,0.77757056,-0.03111929,-0.07699771,0.,0.06107255,-0.1380
 7194,0.,0.26247083,1.06316095,0.,0.,0.02985293,0.,0.,-0.08615559,0.,0.
 ,0.14181866,-0.01111733,0.00137438,0.,-0.00666832,-0.03961548,0.,-0.23
 702061,-0.21298955,0.,0.23552457,0.00904179,0.00439999,0.,0.00711837,0
 .01533065,0.,-0.22222687,-0.40723051,0.,0.22664691,0.39934830,0.,0.,0.
 00795859,0.,0.,-0.00907850,0.,0.,-0.02387257,0.,0.,0.02259673,-0.17775
 676,0.06604423,0.,0.00122463,0.10282460,0.,-0.00370829,-0.13381679,0.,
 0.00040422,0.00247421,0.,0.55741787,0.00864946,-0.13827829,0.,-0.02063
 360,-0.13613715,0.,0.00063620,-0.10619266,0.,0.00910830,-0.00546896,0.
 ,0.11723386,0.59688450,0.,0.,-0.10380736,0.,0.,0.04014860,0.,0.,0.0274
 1686,0.,0.,0.00894147,0.,0.,0.12979385,-0.13618825,0.06672692,0.,-0.07
 443852,0.01387487,0.,-0.17691222,0.06166625,0.,0.01931529,-0.02397658,
 0.,-0.36473014,-0.12939958,0.,1.11130492,-0.03776719,0.04599692,0.,0.1
 0065164,-0.07013609,0.,0.03943204,-0.32822620,0.,0.01580605,-0.0061185
 7,0.,-0.13227435,-0.22596492,0.,-0.11453701,0.70142439,0.,0.,0.0234094
 7,0.,0.,0.02673095,0.,0.,-0.09039922,0.,0.,-0.00507649,0.,0.,-0.098874
 51,0.,0.,0.18803109,-0.00185764,-0.00158124,0.,0.00128006,-0.00384806,
 0.,0.00868407,-0.00728400,0.,-0.00043782,0.00092218,0.,-0.01285153,0.0
 1440535,0.,-0.37835110,0.12868882,0.,0.38353395,-0.00611251,-0.0009542
 6,0.,-0.00348714,-0.00607162,0.,0.03807394,-0.00644193,0.,-0.00033062,
 -0.00026090,0.,-0.02248576,0.01515747,0.,0.12564514,-0.11697554,0.,-0.
 13130305,0.11554677,0.,0.,0.01081836,0.,0.,0.00610697,0.,0.,0.00133893
 ,0.,0.,-0.00146922,0.,0.,-0.00361891,0.,0.,-0.04382128,0.,0.,0.0306451
 6\\-0.00003533,-0.00025698,0.,0.00028148,0.00012779,0.,-0.00021607,-0.
 00011005,0.,0.00000227,-0.00002449,0.,0.00001138,0.00024134,0.,-0.0000
 3545,0.00000872,0.,-0.00000828,0.00001367,0.\\\@

 FOR THE NATURE OF THE CHEMICAL BOND
 IS THE PROBLEM AT THE HEART OF ALL CHEMISTRY.

                     -- BRYCE CRAWFORD, JR., 1953
 Job cpu time:  0 days  0 hours  0 minutes 55.4 seconds.
 File lengths (MBytes):  RWF=   12 Int=    0 D2E=    0 Chk=    8 Scr=    1
 Normal termination of Gaussian 98.
