 Gaussian 98, Revision A.4,
 Gaussian 98:  IBM-RS6000-G98RevA.4 11-Sep-1998

 ------------------
 #HF/3-21G opt freq
 ------------------

 ----------------------------------------
 1H tetrazole c CH-NH-N=N-N= casno=288948
 ----------------------------------------
 Symbolic Z-matrix:
 Charge =  0 Multiplicity = 1

 SCF Done:  E(RHF) =  -255.261123681     A.U. after   14 cycles
 SCF Done:  E(RHF) =  -255.267845517     A.U. after   12 cycles
 SCF Done:  E(RHF) =  -255.268059649     A.U. after   13 cycles
 SCF Done:  E(RHF) =  -255.268666985     A.U. after   12 cycles
 SCF Done:  E(RHF) =  -255.268725487     A.U. after   12 cycles
 SCF Done:  E(RHF) =  -255.268751738     A.U. after   11 cycles
 SCF Done:  E(RHF) =  -255.268755011     A.U. after   10 cycles
 Optimization completed.
    -- Stationary point found.
 Normal termination of Gaussian 98.

 --------------------------------------------
 #N Geom=AllCheck Guess=TCheck RHF/3-21G Freq
 --------------------------------------------

 1H tetrazole c CH-NH-N=N-N= casno=288948
 ----------------------------------------
 Redundant internal coordinates taken from checkpointfile:
 /wrk/rdj3/Gau-11572.chk
 Charge =  0 Multiplicity = 1

                         Standard orientation:
 ---------------------------------------------------------------------
 Center     Atomic     Atomic              Coordinates (Angstroms)
 Number     Number      Type              X           Y           Z
 ---------------------------------------------------------------------
    1          7             0       -0.738270   -0.937506    0.000000
    2          7             0       -1.138809    0.275937    0.000000
    3          7             0        0.000000    1.065499    0.000000
    4          1             0       -0.071438    2.057031    0.000000
    5          7             0        0.675534   -0.991248    0.000000
    6          6             0        1.067617    0.246545    0.000000
    7          1             0        2.076552    0.574924    0.000000
 ---------------------------------------------------------------------

 SCF Done:  E(RHF) =  -255.268755011     A.U. after    1 cycles

  The electronic state is 1-A'.
 Alpha  occ. eigenvalues --  -15.61401 -15.61117 -15.58954 -15.54262 -11.29862
 Alpha  occ. eigenvalues --   -1.51935  -1.25849  -1.23063  -0.90575  -0.89107
 Alpha  occ. eigenvalues --   -0.81340  -0.68199  -0.67410  -0.56650  -0.47320
 Alpha  occ. eigenvalues --   -0.46303  -0.46019  -0.43567
 Alpha virt. eigenvalues --    0.13527   0.18808   0.23778   0.27108   0.36491
 Alpha virt. eigenvalues --    0.39662   0.51383   0.56487   0.66045   0.93491
 Alpha virt. eigenvalues --    0.94209   1.05592   1.09761   1.21977   1.31894

  Exact polarizability:  31.654   1.086  32.376   0.000   0.000  10.734
 Approx polarizability:  33.950   0.164  38.351   0.000   0.000   9.184

                     1                      2                      3
                    A"                     A"                     A"
 Frequencies --   719.4183               759.7940               762.5492
 Red. masses --     4.2732                 1.1325                 9.1673
 Frc consts  --     1.3031                 0.3852                 3.1407
 IR Inten    --    32.1747               172.2970                11.1058
 Raman Activ --     0.8928                 0.3736                 0.3744

                     4                      5                      6
                    A'                     A'                     A"
 Frequencies --   898.5914               981.1591              1076.8442
 Red. masses --    10.9339                 5.5523                 1.4137
 Frc consts  --     5.2018                 3.1492                 0.9659
 IR Inten    --    10.0009                23.8887                 5.8578
 Raman Activ --     4.4221                 3.1150                 0.7835

                     7                      8                      9
                    A'                     A'                     A'
 Frequencies --  1094.4862              1124.2653              1210.9441
 Red. masses --     5.0402                 5.5086                 2.4119
 Frc consts  --     3.5573                 4.1023                 2.0838
 IR Inten    --     8.6124                10.7484                19.3330
 Raman Activ --     3.2192                 5.2277                 4.1446

                    10                     11                     12
                    A'                     A'                     A'
 Frequencies --  1337.9021              1357.6196              1507.5717
 Red. masses --     4.9234                 2.3339                 2.3724
 Frc consts  --     5.1923                 2.5345                 3.1768
 IR Inten    --    13.1149                 6.2479                 9.2478
 Raman Activ --    10.2693                14.3136                 9.5098

                    13                     14                     15
                    A'                     A'                     A'
 Frequencies --  1618.8364              3504.2091              3863.3959
 Red. masses --     2.4991                 1.1034                 1.0853
 Frc consts  --     3.8586                 7.9832                 9.5443
 IR Inten    --    56.3478                 2.7136               176.5354
 Raman Activ --     2.7304                60.2394                62.9359

 - Thermochemistry -
 -------------------
 Temperature   298.150 Kelvin.  Pressure   1.00000 Atm.
 Atom  1 has atomic number  7 and mass  14.00307

 Molecular mass:    70.02795 amu.
 Principal axes and moments of inertia in atomic units:
                           1         2         3
     EIGENVALUES --   172.33352 179.11168 351.44520
           X            0.99959  -0.02857   0.00000
           Y            0.02857   0.99959   0.00000
           Z            0.00000   0.00000   1.00000
 THIS MOLECULE IS AN ASYMMETRIC TOP.
 ROTATIONAL SYMMETRY NUMBER  1.
 ROTATIONAL TEMPERATURES (KELVIN)      0.50259     0.48357     0.24645
 ROTATIONAL CONSTANTS (GHZ)           10.47237    10.07607     5.13520
 Zero-point vibrational energy     130498.2 (Joules/Mol)
                                   31.18981 (Kcal/Mol)
 VIBRATIONAL TEMPERATURES:   1035.08  1093.17  1097.13  1292.87  1411.66
          (KELVIN)           1549.33  1574.71  1617.56  1742.27  1924.93
                             1953.30  2169.05  2329.13  5041.75  5558.53

 Zero-point correction=                           0.049704 (Hartree/Particle)
 Thermal correction to Energy=                    0.053034
 Thermal correction to Enthalpy=                  0.053978
 Thermal correction to Gibbs Free Energy=         0.023639
 Sum of electronic and zero-point Energies=           -255.219051
 Sum of electronic and thermal Energies=              -255.215721
 Sum of electronic and thermal Enthalpies=            -255.214777
 Sum of electronic and thermal Free Energies=         -255.245116

                     E (Thermal)             CV                S
                      KCAL/MOL        CAL/MOL-KELVIN    CAL/MOL-KELVIN
 TOTAL                   33.279             10.506             63.855
 ELECTRONIC               0.000              0.000              0.000
 TRANSLATIONAL            0.889              2.981             38.656
 ROTATIONAL               0.889              2.981             23.899
 VIBRATIONAL             31.502              4.544              1.299
                       Q            LOG10(Q)             LN(Q)
 TOTAL BOT       0.133943D-10        -10.873079        -25.036190
 TOTAL V=0       0.975162D+12         11.989077         27.605870
 VIB (BOT)       0.155965D-22        -22.806972        -52.514993
 VIB (V=0)       0.113549D+01          0.055184          0.127066
 ELECTRONIC      0.100000D+01          0.000000          0.000000
 TRANSLATIONAL   0.230339D+08          7.362368         16.952478
 ROTATIONAL      0.372842D+05          4.571525         10.526325
 ***** Axes restored to original set *****
 -------------------------------------------------------------------
 Center     Atomic                   Forces (Hartrees/Bohr)
 Number     Number              X              Y              Z
 -------------------------------------------------------------------
    1          7           0.000024530    0.000104364    0.000000000
    2          7           0.000062404   -0.000106531    0.000000000
    3          7          -0.000199593    0.000440057    0.000000000
    4          1           0.000016019   -0.000013964    0.000000000
    5          7          -0.000176205   -0.000140516    0.000000000
    6          6           0.000319741   -0.000322282    0.000000000
    7          1          -0.000046897    0.000038873    0.000000000
 -------------------------------------------------------------------
 Cartesian Forces:  Max     0.000440057 RMS     0.000157553

 GradGradGradGradGradGradGradGradGradGradGradGradGradGradGradGradGradGrad
 Berny optimization.
 Internal  Forces:  Max     0.000371849 RMS     0.000090931
 Search for a local minimum.
 Step number   1 out of a maximum of  36
 All quantities printed in internal units (Hartrees-Bohrs-Radians)
 Second derivative matrix not updated -- analytic derivatives used.
     Eigenvalues ---    0.01294   0.03646   0.08398   0.08816   0.11739
     Eigenvalues ---    0.12389   0.17455   0.21324   0.35625   0.42817
     Eigenvalues ---    0.46808   0.49945   0.53116   0.64517   0.71208
     Eigenvalues --- 1000.000001000.000001000.000001000.000001000.00000
     Eigenvalues --- 1000.000001000.000001000.000001000.000001000.00000
     Eigenvalues --- 1000.00000
 Angle between quadratic step and forces=  29.97 degrees.
 Linear search not attempted -- first point.
 Iteration  1 RMS(Cart)=  0.00017668 RMS(Int)=  0.00000003
 Iteration  2 RMS(Cart)=  0.00000003 RMS(Int)=  0.00000000
 Variable       Old X    -DE/DX   Delta X   Delta X   Delta X     New X
                                 (Linear)    (Quad)   (Total)
    R1        2.41477  -0.00004   0.00000  -0.00018  -0.00018   2.41459
    R2        2.67363   0.00004   0.00000   0.00022   0.00022   2.67385
    R3        2.61868  -0.00009   0.00000  -0.00049  -0.00049   2.61819
    R4        1.87858   0.00000   0.00000   0.00000   0.00000   1.87858
    R5        2.54271   0.00037   0.00000   0.00094   0.00094   2.54366
    R6        2.45363   0.00019   0.00000   0.00017   0.00017   2.45381
    R7        2.00505  -0.00006   0.00000  -0.00015  -0.00015   2.00491
    A1        1.92761   0.00009   0.00000   0.00003   0.00003   1.92764
    A2        1.85820   0.00008   0.00000   0.00029   0.00029   1.85850
    A3        2.10510   0.00004   0.00000   0.00025   0.00025   2.10536
    A4        1.88102  -0.00004   0.00000  -0.00007  -0.00007   1.88095
    A5        2.29707   0.00000   0.00000  -0.00019  -0.00019   2.29688
    A6        1.83956  -0.00005   0.00000  -0.00001  -0.00001   1.83955
    A7        1.91838  -0.00007   0.00000  -0.00025  -0.00025   1.91814
    A8        2.17259   0.00002   0.00000  -0.00018  -0.00018   2.17241
    A9        2.19222   0.00005   0.00000   0.00042   0.00042   2.19264
    D1        0.00000   0.00000   0.00000   0.00000   0.00000   0.00000
    D2        0.00000   0.00000   0.00000   0.00000   0.00000   0.00000
    D3        3.14159   0.00000   0.00000   0.00000   0.00000   3.14159
    D4        0.00000   0.00000   0.00000   0.00000   0.00000   0.00000
    D5        0.00000   0.00000   0.00000   0.00000   0.00000   0.00000
    D6        3.14159   0.00000   0.00000   0.00000   0.00000   3.14159
    D7        3.14159   0.00000   0.00000   0.00000   0.00000   3.14159
    D8        0.00000   0.00000   0.00000   0.00000   0.00000   0.00000
    D9        0.00000   0.00000   0.00000   0.00000   0.00000   0.00000
   D10        3.14159   0.00000   0.00000   0.00000   0.00000   3.14159
         Item               Value     Threshold  Converged?
 Maximum Force            0.000372     0.000450     YES
 RMS     Force            0.000091     0.000300     YES
 Maximum Displacement     0.000516     0.001800     YES
 RMS     Displacement     0.000177     0.001200     YES
 Predicted change in Energy=-2.640167D-07
 Optimization completed.
    -- Stationary point found.
                         ----------------------------
                         !   Optimized Parameters   !
                         ! (Angstroms and Degrees)  !
 ------------------------                            -------------------------
 ! Name  Definition              Value          Derivative Info.             !
 -----------------------------------------------------------------------------
 ! R1    R(1,2)                  1.2778         -DE/DX =    0.               !
 ! R2    R(1,5)                  1.4148         -DE/DX =    0.               !
 ! R3    R(2,3)                  1.3857         -DE/DX =   -0.0001           !
 ! R4    R(3,4)                  0.9941         -DE/DX =    0.               !
 ! R5    R(3,6)                  1.3455         -DE/DX =    0.0004           !
 ! R6    R(5,6)                  1.2984         -DE/DX =    0.0002           !
 ! R7    R(6,7)                  1.061          -DE/DX =   -0.0001           !
 ! A1    A(2,1,5)              110.4442         -DE/DX =    0.0001           !
 ! A2    A(1,2,3)              106.4672         -DE/DX =    0.0001           !
 ! A3    A(2,3,4)              120.6135         -DE/DX =    0.               !
 ! A4    A(2,3,6)              107.7742         -DE/DX =    0.               !
 ! A5    A(4,3,6)              131.6122         -DE/DX =    0.               !
 ! A6    A(1,5,6)              105.3992         -DE/DX =   -0.0001           !
 ! A7    A(3,6,5)              109.9152         -DE/DX =   -0.0001           !
 ! A8    A(3,6,7)              124.4801         -DE/DX =    0.               !
 ! A9    A(5,6,7)              125.6047         -DE/DX =    0.0001           !
 ! D1    D(5,1,2,3)              0.             -DE/DX =    0.               !
 ! D2    D(2,1,5,6)              0.             -DE/DX =    0.               !
 ! D3    D(1,2,3,4)            180.             -DE/DX =    0.               !
 ! D4    D(1,2,3,6)              0.             -DE/DX =    0.               !
 ! D5    D(2,3,6,5)              0.             -DE/DX =    0.               !
 ! D6    D(2,3,6,7)            180.             -DE/DX =    0.               !
 ! D7    D(4,3,6,5)            180.             -DE/DX =    0.               !
 ! D8    D(4,3,6,7)              0.             -DE/DX =    0.               !
 ! D9    D(1,5,6,3)              0.             -DE/DX =    0.               !
 ! D10   D(1,5,6,7)            180.             -DE/DX =    0.               !
 -----------------------------------------------------------------------------
 GradGradGradGradGradGradGradGradGradGradGradGradGradGradGradGradGradGrad

 1\1\GINC-FERRUM\Freq\RHF\3-21G\C1H2N4\RDJ3\06-Oct-1999\0\\#N GEOM=ALLC
 HECK GUESS=TCHECK RHF/3-21G FREQ\\1H tetrazole c CH-NH-N=N-N= casno=28
 8948\\0,1\N,-1.1659271872,-0.254115228,0.\N,-0.7034647442,0.9371048891
 ,0.\N,0.6775224237,0.822345718,0.\H,1.2528751743,1.6330287378,0.\N,-0.
 1089351148,-1.1945930339,0.\C,0.9807515339,-0.4885874077,0.\H,1.968247
 9792,-0.8767007081,0.\\Version=IBM-RS6000-G98RevA.4\State=1-A'\HF=-255
 .268755\RMSD=1.268e-09\RMSF=1.576e-04\Dipole=2.1242347,0.8800211,0.\Di
 poleDeriv=0.1225064,-0.1476514,0.,-0.1866122,-0.0558833,0.,0.,0.,-0.15
 1492,0.3056099,0.2818007,0.,0.1859664,-0.2647708,0.,0.,0.,-0.0531588,-
 0.5366339,-0.2974605,0.,-0.2392476,-0.4179717,0.,0.,0.,-0.3796071,0.28
 07657,0.0609626,0.,0.0725449,0.3489935,0.,0.,0.,0.4520723,-0.5706824,0
 .1332949,0.,-0.0743169,-0.1839974,0.,0.,0.,-0.2651186,0.3117856,-0.053
 6671,0.,0.2421261,0.4322659,0.,0.,0.,0.2126581,0.0866488,0.0227208,0.,
 -0.0004607,0.1413637,0.,0.,0.,0.1846461\Polar=33.0120737,0.5618239,31.
 0180599,0.,0.,10.7344081\PolarDeriv=-9.8596036,-3.017153,-0.9862008,0.
 ,0.,-0.2341148,-2.0281837,1.5252756,-3.6853107,0.,0.,0.1508082,0.,0.,0
 .,-2.9735546,-1.5670768,0.,-2.3202815,1.4832038,-2.8151598,0.,0.,0.230
 189,3.5405204,-4.875035,10.2118185,0.,0.,-0.0068688,0.,0.,0.,-1.559999
 ,3.3455418,0.,1.2408725,0.351451,0.1081956,0.,0.,-0.3552289,1.0853348,
 1.1976021,-1.0382299,0.,0.,0.133735,0.,0.,0.,1.0112713,1.6236369,0.,2.
 6863242,2.6458583,2.4852233,0.,0.,-0.0430943,1.6800546,2.8197604,5.577
 7051,0.,0.,-0.0825089,0.,0.,0.,0.544977,0.7868278,0.,-1.5132386,1.8654
 262,-1.2725629,0.,0.,0.5009499,-2.2256553,-0.6708548,-10.3130003,0.,0.
 ,0.248107,0.,0.,0.,-1.6669524,-3.2197886,0.,2.5721478,-0.9292006,1.183
 4049,0.,0.,-0.5957005,-0.4761507,-2.102417,0.8910659,0.,0.,-0.2560726,
 0.,0.,0.,3.509996,-0.2983217,0.,7.1937792,-2.3995857,1.2970997,0.,0.,0
 .4969996,-1.57592,2.1056686,-1.6440485,0.,0.,-0.1871999,0.,0.,0.,1.134
 2617,-0.6708194,0.\HyperPolar=51.0118464,2.7139333,17.101409,14.955027
 ,0.,0.,0.,10.2262553,3.2866615,0.\PG=CS [SG(C1H2N4)]\NImag=0\\0.548639
 42,0.13197054,0.45520970,0.,0.,0.13105493,-0.13866109,-0.10900510,0.,0
 .37580082,-0.03920804,-0.33459630,0.,-0.03148278,0.65628167,0.,0.,-0.1
 0284478,0.,0.,0.12440182,-0.13185152,-0.11653789,0.,-0.15367646,-0.004
 84125,0.,0.67914741,-0.02830064,-0.07733648,0.,0.05477834,-0.12539164,
 0.,0.25456634,0.99840313,0.,0.,0.02868416,0.,0.,-0.08127095,0.,0.,0.13
 218753,-0.01077193,0.00171609,0.,-0.00517536,-0.03701950,0.,-0.2271319
 9,-0.19824977,0.,0.22412541,0.00928168,0.00382979,0.,0.00438328,0.0137
 0883,0.,-0.20824321,-0.38266785,0.,0.21602616,0.37566035,0.,0.,0.00735
 407,0.,0.,-0.00889449,0.,0.,-0.01962752,0.,0.,0.01972248,-0.11967203,0
 .02647537,0.,-0.00155357,0.09735116,0.,-0.00683584,-0.13242567,0.,0.00
 089686,0.00210920,0.,0.49083364,-0.03035305,-0.08957253,0.,-0.02067712
 ,-0.13370439,0.,0.00214363,-0.10931678,0.,0.00904376,-0.00502739,0.,0.
 15983063,0.54583916,0.,0.,-0.09499972,0.,0.,0.03609996,0.,0.,0.0303623
 0,0.,0.,0.00818503,0.,0.,0.12321667,-0.14573150,0.06651999,0.,-0.07807
 901,0.01924804,0.,-0.16611822,0.05455797,0.,0.01841346,-0.02442834,0.,
 -0.34726856,-0.13248502,0.,1.08763279,-0.03694266,0.04277154,0.,0.1048
 3242,-0.06965763,0.,0.03357968,-0.29420727,0.,0.00885210,-0.00498831,0
 .,-0.12970207,-0.22173319,0.,-0.10291366,0.65661607,0.,0.,0.01932474,0
 .,0.,0.02660850,0.,0.,-0.09369049,0.,0.,-0.00511793,0.,0.,-0.10104796,
 0.,0.,0.20556717,-0.00195135,-0.00113900,0.,0.00134467,-0.00404763,0.,
 0.00646662,-0.00492657,0.,-0.00035645,0.00087123,0.,-0.01640051,0.0124
 9717,0.,-0.36884896,0.12229419,0.,0.37974599,-0.00644783,-0.00030571,0
 .,-0.00282904,-0.00664054,0.,0.03933270,-0.00948312,0.,-0.00036883,-0.
 00051542,0.,-0.02363863,0.01351511,0.,0.11950102,-0.10880122,0.,-0.125
 54939,0.11223089,0.,0.,0.01142660,0.,0.,0.00589995,0.,0.,0.00335498,0.
 ,0.,-0.00162164,0.,0.,-0.00181628,0.,0.,-0.05164403,0.,0.,0.03440042\\
 -0.00002453,-0.00010436,0.,-0.00006240,0.00010653,0.,0.00019959,-0.000
 44006,0.,-0.00001602,0.00001396,0.,0.00017620,0.00014052,0.,-0.0003197
 4,0.00032228,0.,0.00004690,-0.00003887,0.\\\@

 IF YOU GIVE EVERYONE A PIECE OF YOUR MIND,
 PRETTY SOON IT WILL BE ALL GONE.
 Job cpu time:  0 days  0 hours  0 minutes 43.9 seconds.
 File lengths (MBytes):  RWF=   10 Int=    0 D2E=    0 Chk=    3 Scr=    1
 Normal termination of Gaussian 98.
