 Gaussian 98, Revision A.4,
 Gaussian 98:  x86-Linux-G98RevA.4 11-Sep-1998

 --------------------
 #HF/6-31G** opt freq
 --------------------

 ----------------------------------------
 1H tetrazole c CH-NH-N=N-N= casno=288948
 ----------------------------------------
 Symbolic Z-matrix:
 Charge =  0 Multiplicity = 1

 SCF Done:  E(RHF) =  -256.760119013     A.U. after   15 cycles
 SCF Done:  E(RHF) =  -256.760121864     A.U. after    9 cycles
 Optimization completed.
    -- Stationary point found.
 Normal termination of Gaussian 98.

 -------------------------------------------------
 #N Geom=AllCheck Guess=TCheck RHF/6-31G(d,p) Freq
 -------------------------------------------------

 1H tetrazole c CH-NH-N=N-N= casno=288948
 ----------------------------------------
 Redundant internal coordinates taken from checkpointfile:
 /wrk/rdj3/Gau-28102.chk
 Charge =  0 Multiplicity = 1

                         Standard orientation:
 ---------------------------------------------------------------------
 Center     Atomic     Atomic              Coordinates (Angstroms)
 Number     Number      Type              X           Y           Z
 ---------------------------------------------------------------------
    1          7             0       -0.716504   -0.902084    0.000000
    2          7             0       -1.095006    0.291296    0.000000
    3          7             0        0.000000    1.039513    0.000000
    4          1             0       -0.059247    2.030398    0.000000
    5          7             0        0.621842   -0.989699    0.000000
    6          6             0        1.052387    0.225656    0.000000
    7          1             0        2.072603    0.542477    0.000000
 ---------------------------------------------------------------------

 SCF Done:  E(RHF) =  -256.760121864     A.U. after    1 cycles

  The electronic state is 1-A'.
 Alpha  occ. eigenvalues --  -15.68409 -15.66093 -15.64128 -15.59950 -11.33380
 Alpha  occ. eigenvalues --   -1.52118  -1.26655  -1.20975  -0.91403  -0.89610
 Alpha  occ. eigenvalues --   -0.80937  -0.68882  -0.68324  -0.57202  -0.47459
 Alpha  occ. eigenvalues --   -0.46274  -0.45795  -0.42387
 Alpha virt. eigenvalues --    0.15059   0.20170   0.20236   0.25689   0.37613
 Alpha virt. eigenvalues --    0.39631   0.48750   0.51574   0.67250   0.73634
 Alpha virt. eigenvalues --    0.73807   0.82463   0.83127   0.90423   0.91313

  Exact polarizability:  34.410   0.740  34.808   0.000   0.000  15.300
 Approx polarizability:  35.374   0.293  37.919   0.000   0.000  16.941

                     1                      2                      3
                    A"                     A"                     A"
 Frequencies --   631.1505               750.6485               815.0360
 Red. masses --     1.6062                 2.0980                 9.4696
 Frc consts  --     0.3770                 0.6965                 3.7062
 IR Inten    --   127.2167                 6.6444                 8.5561
 Raman Activ --     0.6202                 0.3354                 0.0792

                     4                      5                      6
                    A"                     A'                     A'
 Frequencies --  1013.0026              1092.3439              1114.1010
 Red. masses --     1.3843                 4.7294                 7.0326
 Frc consts  --     0.8369                 3.3248                 5.1430
 IR Inten    --     9.5566                 2.0322                 1.5910
 Raman Activ --     0.4565                 2.2714                 2.5844

                     7                      8                      9
                    A'                     A'                     A'
 Frequencies --  1180.3231              1200.2796              1259.9829
 Red. masses --     3.5942                 2.7385                 2.3760
 Frc consts  --     2.9502                 2.3245                 2.2224
 IR Inten    --    24.8809                34.9120                19.6619
 Raman Activ --     5.0749                 2.2247                 7.8783

                    10                     11                     12
                    A'                     A'                     A'
 Frequencies --  1427.3380              1549.2490              1628.6453
 Red. masses --     2.7489                 5.7441                 3.2856
 Frc consts  --     3.2996                 8.1229                 5.1347
 IR Inten    --     1.1126                37.7948                11.4278
 Raman Activ --    10.3579                17.0060                 7.6621

                    13                     14                     15
                    A'                     A'                     A'
 Frequencies --  1720.1333              3470.0082              3933.3485
 Red. masses --     3.8938                 1.1043                 1.0852
 Frc consts  --     6.7881                 7.8341                 9.8922
 IR Inten    --    24.9937                 0.3758               145.3514
 Raman Activ --     1.5467                62.9392                62.0524

 - Thermochemistry -
 -------------------
 Temperature   298.150 Kelvin.  Pressure   1.00000 Atm.
 Atom  1 has atomic number  7 and mass  14.00307

 Molecular mass:    70.02795 amu.
 Principal axes and moments of inertia in atomic units:
                           1         2         3
     EIGENVALUES --   165.36867 168.02548 333.39415
           X            0.93601   0.35197   0.00000
           Y           -0.35197   0.93601   0.00000
           Z            0.00000   0.00000   1.00000
 THIS MOLECULE IS AN ASYMMETRIC TOP.
 ROTATIONAL SYMMETRY NUMBER  1.
 ROTATIONAL TEMPERATURES (KELVIN)      0.52376     0.51548     0.25979
 ROTATIONAL CONSTANTS (GHZ)           10.91344    10.74088     5.41324
 Zero-point vibrational energy     136288.1 (Joules/Mol)
                                   32.57364 (Kcal/Mol)
 VIBRATIONAL TEMPERATURES:    908.08  1080.01  1172.65  1457.48  1571.63
          (KELVIN)           1602.93  1698.21  1726.92  1812.82  2053.61
                             2229.01  2343.24  2474.87  4992.54  5659.18

 Zero-point correction=                           0.051909 (Hartree/Particle)
 Thermal correction to Energy=                    0.055201
 Thermal correction to Enthalpy=                  0.056146
 Thermal correction to Gibbs Free Energy=         0.025922
 Sum of electronic and zero-point Energies=           -256.708212
 Sum of electronic and thermal Energies=              -256.704920
 Sum of electronic and thermal Enthalpies=            -256.703976
 Sum of electronic and thermal Free Energies=         -256.734200

                     E (Thermal)             CV                S
                      KCAL/MOL        CAL/MOL-KELVIN    CAL/MOL-KELVIN
 TOTAL                   34.639             10.040             63.612
 ELECTRONIC               0.000              0.000              0.000
 TRANSLATIONAL            0.889              2.981             38.656
 ROTATIONAL               0.889              2.981             23.742
 VIBRATIONAL             32.862              4.079              1.213
                       Q            LOG10(Q)             LN(Q)
 TOTAL BOT       0.119372D-11        -11.923098        -27.453947
 TOTAL V=0       0.898271D+12         11.953407         27.523738
 VIB (BOT)       0.150415D-23        -23.822708        -54.853812
 VIB (V=0)       0.113187D+01          0.053797          0.123873
 ELECTRONIC      0.100000D+01          0.000000          0.000000
 TRANSLATIONAL   0.230339D+08          7.362368         16.952478
 ROTATIONAL      0.344542D+05          4.537243         10.447387
 ***** Axes restored to original set *****
 -------------------------------------------------------------------
 Center     Atomic                   Forces (Hartrees/Bohr)
 Number     Number              X              Y              Z
 -------------------------------------------------------------------
    1          7           0.000310845    0.000336634    0.000000000
    2          7          -0.000361515    0.000216902    0.000000000
    3          7          -0.000408368   -0.000338017    0.000000000
    4          1           0.000114128    0.000081900    0.000000000
    5          7           0.000257217   -0.000052314    0.000000000
    6          6           0.000122819   -0.000234759    0.000000000
    7          1          -0.000035126   -0.000010346    0.000000000
 -------------------------------------------------------------------
 Cartesian Forces:  Max     0.000408368 RMS     0.000198671

 GradGradGradGradGradGradGradGradGradGradGradGradGradGradGradGradGradGrad
 Berny optimization.
 Internal  Forces:  Max     0.000385995 RMS     0.000153085
 Search for a local minimum.
 Step number   1 out of a maximum of  36
 All quantities printed in internal units (Hartrees-Bohrs-Radians)
 Second derivative matrix not updated -- analytic derivatives used.
     Eigenvalues ---    0.00954   0.03266   0.08492   0.09091   0.12280
     Eigenvalues ---    0.12689   0.26139   0.31364   0.42109   0.43144
     Eigenvalues ---    0.53808   0.54997   0.59782   0.70599   0.78474
     Eigenvalues --- 1000.000001000.000001000.000001000.000001000.00000
     Eigenvalues --- 1000.000001000.000001000.000001000.000001000.00000
     Eigenvalues --- 1000.00000
 Angle between quadratic step and forces=  25.40 degrees.
 Linear search not attempted -- first point.
 Iteration  1 RMS(Cart)=  0.00026559 RMS(Int)=  0.00000006
 Iteration  2 RMS(Cart)=  0.00000007 RMS(Int)=  0.00000001
 Variable       Old X    -DE/DX   Delta X   Delta X   Delta X     New X
                                 (Linear)    (Quad)   (Total)
    R1        2.36587  -0.00022   0.00000  -0.00030  -0.00030   2.36557
    R2        2.53452   0.00019   0.00000   0.00040   0.00040   2.53492
    R3        2.50620   0.00003   0.00000   0.00013   0.00013   2.50633
    R4        1.87585   0.00013   0.00000   0.00026   0.00026   1.87610
    R5        2.51403   0.00013   0.00000   0.00016   0.00016   2.51420
    R6        2.43654  -0.00028   0.00000  -0.00029  -0.00029   2.43625
    R7        2.01875  -0.00003   0.00000  -0.00007  -0.00007   2.01868
    A1        1.94330   0.00031   0.00000   0.00049   0.00049   1.94379
    A2        1.86309  -0.00039   0.00000  -0.00064  -0.00064   1.86246
    A3        2.11050  -0.00010   0.00000   0.00021   0.00021   2.11071
    A4        1.88389   0.00029   0.00000   0.00053   0.00053   1.88442
    A5        2.28879  -0.00019   0.00000  -0.00074  -0.00074   2.28805
    A6        1.84588  -0.00007   0.00000  -0.00012  -0.00012   1.84577
    A7        1.88861  -0.00014   0.00000  -0.00027  -0.00027   1.88834
    A8        2.18222   0.00009   0.00000   0.00016   0.00016   2.18238
    A9        2.21236   0.00005   0.00000   0.00010   0.00010   2.21246
    D1        0.00000   0.00000   0.00000   0.00000   0.00000   0.00000
    D2        0.00000   0.00000   0.00000   0.00000   0.00000   0.00000
    D3        3.14159   0.00000   0.00000   0.00000   0.00000   3.14159
    D4        0.00000   0.00000   0.00000   0.00000   0.00000   0.00000
    D5        0.00000   0.00000   0.00000   0.00000   0.00000   0.00000
    D6        3.14159   0.00000   0.00000   0.00000   0.00000   3.14159
    D7        3.14159   0.00000   0.00000   0.00000   0.00000   3.14159
    D8        0.00000   0.00000   0.00000   0.00000   0.00000   0.00000
    D9        0.00000   0.00000   0.00000   0.00000   0.00000   0.00000
   D10        3.14159   0.00000   0.00000   0.00000   0.00000   3.14159
         Item               Value     Threshold  Converged?
 Maximum Force            0.000386     0.000450     YES
 RMS     Force            0.000153     0.000300     YES
 Maximum Displacement     0.000676     0.001800     YES
 RMS     Displacement     0.000266     0.001200     YES
 Predicted change in Energy=-5.109361D-07
 Optimization completed.
    -- Stationary point found.
                         ----------------------------
                         !   Optimized Parameters   !
                         ! (Angstroms and Degrees)  !
 ------------------------                            -------------------------
 ! Name  Definition              Value          Derivative Info.             !
 -----------------------------------------------------------------------------
 ! R1    R(1,2)                  1.252          -DE/DX =   -0.0002           !
 ! R2    R(1,5)                  1.3412         -DE/DX =    0.0002           !
 ! R3    R(2,3)                  1.3262         -DE/DX =    0.               !
 ! R4    R(3,4)                  0.9927         -DE/DX =    0.0001           !
 ! R5    R(3,6)                  1.3304         -DE/DX =    0.0001           !
 ! R6    R(5,6)                  1.2894         -DE/DX =   -0.0003           !
 ! R7    R(6,7)                  1.0683         -DE/DX =    0.               !
 ! A1    A(2,1,5)              111.3429         -DE/DX =    0.0003           !
 ! A2    A(1,2,3)              106.7474         -DE/DX =   -0.0004           !
 ! A3    A(2,3,4)              120.923          -DE/DX =   -0.0001           !
 ! A4    A(2,3,6)              107.9389         -DE/DX =    0.0003           !
 ! A5    A(4,3,6)              131.1381         -DE/DX =   -0.0002           !
 ! A6    A(1,5,6)              105.7614         -DE/DX =   -0.0001           !
 ! A7    A(3,6,5)              108.2094         -DE/DX =   -0.0001           !
 ! A8    A(3,6,7)              125.0319         -DE/DX =    0.0001           !
 ! A9    A(5,6,7)              126.7587         -DE/DX =    0.               !
 ! D1    D(5,1,2,3)              0.             -DE/DX =    0.               !
 ! D2    D(2,1,5,6)              0.             -DE/DX =    0.               !
 ! D3    D(1,2,3,4)            180.             -DE/DX =    0.               !
 ! D4    D(1,2,3,6)              0.             -DE/DX =    0.               !
 ! D5    D(2,3,6,5)              0.             -DE/DX =    0.               !
 ! D6    D(2,3,6,7)            180.             -DE/DX =    0.               !
 ! D7    D(4,3,6,5)            180.             -DE/DX =    0.               !
 ! D8    D(4,3,6,7)              0.             -DE/DX =    0.               !
 ! D9    D(1,5,6,3)              0.             -DE/DX =    0.               !
 ! D10   D(1,5,6,7)            180.             -DE/DX =    0.               !
 -----------------------------------------------------------------------------
 GradGradGradGradGradGradGradGradGradGradGradGradGradGradGradGradGradGrad

 1\1\GINC-QCHEM5\Freq\RHF\6-31G(d,p)\C1H2N4\RDJ3\03-Apr-2000\0\\#N GEOM
 =ALLCHECK GUESS=TCHECK RHF/6-31G(D,P) FREQ\\1H tetrazole c CH-NH-N=N-N
 = casno=288948\\0,1\N,-1.1234378391,-0.2549906982,0.\N,-0.6716052838,0
 .9125999846,0.\N,0.6506945063,0.8106687205,0.\H,1.2247462584,1.6205011
 904,0.\N,-0.1345669482,-1.1610694336,0.\C,0.9619607747,-0.4827741933,0
 .\H,1.9558980468,-0.8743160442,0.\\Version=x86-Linux-G98RevA.4\State=1
 -A'\HF=-256.7601219\RMSD=1.717e-09\RMSF=1.987e-04\Dipole=2.0459995,0.8
 65362,0.\DipoleDeriv=-0.0051509,-0.2204636,0.,-0.2125537,0.0928329,0.,
 0.,0.,-0.1478346,0.2580366,0.3487556,0.,0.2425812,-0.342961,0.,0.,0.,-
 0.0930259,-0.4281337,-0.3549616,0.,-0.2135696,-0.330556,0.,0.,0.,-0.23
 24737,0.259403,0.0664855,0.,0.0509069,0.3182208,0.,0.,0.,0.3833948,-0.
 5181777,0.1734453,0.,-0.0754703,-0.3692733,0.,0.,0.,-0.2636522,0.37957
 82,-0.0259074,0.,0.1946765,0.5118599,0.,0.,0.,0.1923898,0.0544445,0.01
 26463,0.,0.0134289,0.1198767,0.,0.,0.,0.1612019\Polar=35.2882693,0.354
 1304,33.9301508,0.,0.,15.3000998\PolarDeriv=-8.1843989,-3.4851716,-0.9
 363988,0.,0.,-0.5116978,-2.6281182,2.7699004,-5.0684827,0.,0.,-0.16958
 79,0.,0.,0.,-2.8647559,-1.2498185,0.,-1.7468536,1.1787881,-2.2438187,0
 .,0.,0.0705494,3.368135,-4.7994327,10.4771699,0.,0.,0.4430869,0.,0.,0.
 ,-1.4599985,3.0425135,0.,0.1070145,0.3932695,0.0071499,0.,0.,-0.369493
 1,1.2404159,0.9538648,-0.9328688,0.,0.,0.2678468,0.,0.,0.,1.0496905,1.
 6250518,0.,2.733153,2.467386,2.4514521,0.,0.,0.0733972,1.8706414,2.758
 1143,5.4722577,0.,0.,0.1469093,0.,0.,0.,0.4833623,0.706229,0.,-3.04962
 23,3.1440727,-2.2594656,0.,0.,-0.0827705,-1.9335173,-1.4293912,-8.7545
 414,0.,0.,-0.1209225,0.,0.,0.,-1.3107722,-3.0999067,0.,2.7857285,-1.32
 8204,1.4825668,0.,0.,0.2975619,-0.1014808,-2.2695223,0.4574093,0.,0.,-
 0.3583141,0.,0.,0.,3.1159554,-0.4931306,0.,7.3549788,-2.3701406,1.4985
 142,0.,0.,0.522453,-1.816076,2.0164668,-1.6509439,0.,0.,-0.2090185,0.,
 0.,0.,0.9865183,-0.5309385,0.\HyperPolar=49.1123046,0.3361304,12.90575
 85,16.7891083,0.,0.,0.,6.4177022,0.3671946,0.\PG=CS [SG(C1H2N4)]\NImag
 =0\\0.69450894,0.13763563,0.68738314,0.,0.,0.15177558,-0.19422489,-0.1
 5853270,0.,0.55735295,-0.10345956,-0.49008845,0.,-0.00045824,0.8407142
 6,0.,0.,-0.11927416,0.,0.,0.14092627,-0.13005565,-0.13620583,0.,-0.291
 61879,0.02512039,0.,0.82728225,-0.03272055,-0.08439371,0.,0.07723578,-
 0.14380085,0.,0.22410132,1.09551748,0.,0.,0.03403885,0.,0.,-0.08357840
 ,0.,0.,0.11105503,-0.01287421,0.00076031,0.,-0.00591234,-0.03903511,0.
 ,-0.23391561,-0.20138957,0.,0.23212957,0.00831552,0.00483649,0.,0.0007
 8692,0.01454170,0.,-0.21274329,-0.39646855,0.,0.22477805,0.38880866,0.
 ,0.,0.00875852,0.,0.,-0.01378714,0.,0.,-0.00808925,0.,0.,0.01575456,-0
 .21660483,0.07365600,0.,0.01395995,0.11624007,0.,-0.00906680,-0.146346
 45,0.,0.00231810,0.00149844,0.,0.62014155,0.04283235,-0.17545813,0.,-0
 .02562926,-0.14490362,0.,0.00907798,-0.09636608,0.,0.00957344,-0.00709
 841,0.,0.12208390,0.66674710,0.,0.,-0.10841246,0.,0.,0.04371155,0.,0.,
 0.02599573,0.,0.,0.00882410,0.,0.,0.13255288,-0.13709197,0.08442662,0.
 ,-0.08033393,0.00453911,0.,-0.16882639,0.08133734,0.,0.01876845,-0.023
 37332,0.,-0.39374380,-0.17068587,0.,1.11938965,-0.04559076,0.05866537,
 0.,0.10803903,-0.06896187,0.,0.05275735,-0.37002906,0.,0.00558638,-0.0
 0432013,0.,-0.14770369,-0.26133456,0.,-0.08967815,0.76277405,0.,0.,0.0
 2212493,0.,0.,0.02474957,0.,0.,-0.07928942,0.,0.,-0.01015315,0.,0.,-0.
 09895633,0.,0.,0.18580888,-0.00365740,-0.00174002,0.,0.00077705,-0.002
 94666,0.,0.00620099,-0.00221788,0.,-0.00051397,0.00073769,0.,-0.017004
 17,0.01274745,0.,-0.35816201,0.11658985,0.,0.37235951,-0.00701264,-0.0
 0094470,0.,-0.00144152,-0.00750116,0.,0.03789209,-0.00445924,0.,-0.000
 27350,-0.00029975,0.,-0.01942827,0.01841370,0.,0.11343426,-0.11679379,
 0.,-0.12317041,0.11158493,0.,0.,0.01098874,0.,0.,0.00725232,0.,0.,-0.0
 0013253,0.,0.,-0.00130763,0.,0.,-0.00371547,0.,0.,-0.04428448,0.,0.,0.
 03119905\\-0.00031085,-0.00033663,0.,0.00036152,-0.00021690,0.,0.00040
 837,0.00033802,0.,-0.00011413,-0.00008190,0.,-0.00025722,0.00005231,0.
 ,-0.00012282,0.00023476,0.,0.00003513,0.00001035,0.\\\@

 YOU KNOW YOU'RE A TEACHER WHEN YOU SAY 2, WRITE 3, AND MEAN 4.
 -- RONALD ANSTROM, HIGH SCHOOL TEACHER, UNDERWOOD, N.D. 1974
 Job cpu time:  0 days  0 hours  9 minutes  4.4 seconds.
 File lengths (MBytes):  RWF=   14 Int=    0 D2E=    0 Chk=    3 Scr=    1
 Normal termination of Gaussian 98.
