 Gaussian 09, Revision A.02,
 Gaussian 09:  AM64L-G09RevA.02 11-Jun-2009

 -----------------
 #HF/TZVP opt freq
 -----------------

 ----------------------------------------------------------
 1H tetrazole c CH-NH-N=N-N= casno=288948 method=1 basis=32
 ----------------------------------------------------------
 Symbolic Z-matrix:
 Charge =  0 Multiplicity = 1

 SCF Done:  E(RHF) =  -256.833825228     A.U. after   15 cycles
 SCF Done:  E(RHF) =  -256.833885943     A.U. after   10 cycles
 SCF Done:  E(RHF) =  -256.833889462     A.U. after   10 cycles
 SCF Done:  E(RHF) =  -256.833892870     A.U. after    9 cycles
 Optimization completed.
    -- Stationary point found.
 Normal termination of Gaussian 09 at Wed Jan 19 11:00:01 2011.

 -------------------------------------------------------------
 #N Geom=AllCheck Guess=TCheck SCRF=Check GenChk RHF/TZVP Freq
 -------------------------------------------------------------

 1H tetrazole c CH-NH-N=N-N= casno=288948 method=1 basis=32
 ----------------------------------------------------------
 Redundant internal coordinates taken from checkpoint file:
 /gaussian/Gau-29962.chk
 Charge =  0 Multiplicity = 1

                         Standard orientation:
 ---------------------------------------------------------------------
 Center     Atomic      Atomic             Coordinates (Angstroms)
 Number     Number       Type             X           Y           Z
 ---------------------------------------------------------------------
      1          7           0       -0.717214   -0.899315    0.000000
      2          7           0       -1.093258    0.288545    0.000000
      3          7           0        0.000000    1.038319    0.000000
      4          1           0       -0.060739    2.028403    0.000000
      5          7           0        0.622445   -0.986797    0.000000
      6          6           0        1.050976    0.224559    0.000000
      7          1           0        2.071070    0.538976    0.000000
 ---------------------------------------------------------------------

 SCF Done:  E(RHF) =  -256.833892870     A.U. after    1 cycles

 The electronic state is 1-A'.
 Alpha  occ. eigenvalues --  -15.68003 -15.65876 -15.63915 -15.59742 -11.33251
 Alpha  occ. eigenvalues --   -1.52942  -1.27127  -1.21745  -0.91862  -0.90208
 Alpha  occ. eigenvalues --   -0.81557  -0.69431  -0.68888  -0.57782  -0.47938
 Alpha  occ. eigenvalues --   -0.46754  -0.46300  -0.43108
 Alpha virt. eigenvalues --    0.11332   0.13414   0.16974   0.18238   0.22102
 Alpha virt. eigenvalues --    0.23764   0.32750   0.34072   0.39684   0.40694
 Alpha virt. eigenvalues --    0.44331   0.47394   0.48520   0.50545   0.51080

 Mulliken atomic charges:
              1
     1  N   -0.058064
     2  N   -0.068150
     3  N   -0.101841
     4  H    0.267415
     5  N   -0.104322
     6  C   -0.074113
     7  H    0.139075
 Sum of Mulliken atomic charges =   0.00000

 Dipole moment (field-independent basis, Debye):
    X=              2.6740    Y=              5.0327    Z=              0.0000  Tot=              5.6990
 Quadrupole moment (field-independent basis, Debye-Ang):
   XX=            -29.0892   YY=            -26.9396   ZZ=            -28.6029
   XY=              2.0504   XZ=              0.0000   YZ=              0.0000

  Exact polarizability:  37.293   0.449  37.897   0.000   0.000  20.984
 Approx polarizability:  36.548   0.207  39.285   0.000   0.000  21.829

                     1                      2                      3
                    A"                     A"                     A"
 Frequencies --   605.4447               744.7941               808.1833
 Red. masses --     1.7516                 1.9772                 8.9404
 Frc consts  --     0.3783                 0.6462                 3.4405
 IR Inten    --   103.3038                10.7764                 9.3696
 Raman Activ --     0.6705                 0.2085                 0.0802

                     4                      5                      6
                    A"                     A'                     A'
 Frequencies --   993.6977              1083.8540              1108.3495
 Red. masses --     1.3540                 5.4089                 8.3444
 Frc consts  --     0.7877                 3.7437                 6.0395
 IR Inten    --    14.5176                 1.4820                 2.1312
 Raman Activ --     0.1196                 1.9344                 2.6850

                     7                      8                      9
                    A'                     A'                     A'
 Frequencies --  1159.2792              1185.8803              1250.4267
 Red. masses --     3.6149                 2.6807                 2.4363
 Frc consts  --     2.8623                 2.2211                 2.2444
 IR Inten    --    26.1151                32.0814                24.4018
 Raman Activ --     5.2328                 2.4411                 5.7282

                    10                     11                     12
                    A'                     A'                     A'
 Frequencies --  1416.9969              1529.0695              1611.4682
 Red. masses --     2.6293                 5.3803                 3.1725
 Frc consts  --     3.1104                 7.4116                 4.8540
 IR Inten    --     1.0055                37.4204                12.2879
 Raman Activ --    13.4318                22.0710                 9.5341

                    13                     14                     15
                    A'                     A'                     A'
 Frequencies --  1708.2072              3444.3149              3906.0462
 Red. masses --     3.6892                 1.1048                 1.0853
 Frc consts  --     6.3426                 7.7223                 9.7557
 IR Inten    --    24.3298                 0.8925               148.9101
 Raman Activ --     2.2261                62.3696                63.4629

 - Thermochemistry -
 -------------------
 Temperature   298.150 Kelvin.  Pressure   1.00000 Atm.
 Atom     1 has atomic number  7 and mass  14.00307

 Molecular mass:    70.02795 amu.
 Principal axes and moments of inertia in atomic units:
                           1         2         3
     Eigenvalues --   164.66088 167.67922 332.34011
           X            0.96038   0.27869   0.00000
           Y           -0.27869   0.96038   0.00000
           Z            0.00000   0.00000   1.00000
 This molecule is an asymmetric top.
 Rotational symmetry number  1.
 Rotational temperatures (Kelvin)      0.52601     0.51654     0.26062
 Rotational constants (GHZ):          10.96035    10.76306     5.43040
 Zero-point vibrational energy     134914.9 (Joules/Mol)
                                   32.24544 (Kcal/Mol)
 Warning -- explicit consideration of   1 degrees of freedom as
           vibrations may cause significant error
 Vibrational temperatures:    871.10  1071.59  1162.79  1429.71  1559.42
          (Kelvin)           1594.67  1667.94  1706.22  1799.08  2038.74
                             2199.99  2318.54  2457.73  4955.59  5619.92

 Zero-point correction=                           0.051386 (Hartree/Particle)
 Thermal correction to Energy=                    0.054704
 Thermal correction to Enthalpy=                  0.055648
 Thermal correction to Gibbs Free Energy=         0.025394
 Sum of electronic and zero-point Energies=           -256.782506
 Sum of electronic and thermal Energies=              -256.779189
 Sum of electronic and thermal Enthalpies=            -256.778245
 Sum of electronic and thermal Free Energies=         -256.808499

                     E (Thermal)             CV                S
                      KCal/Mol        Cal/Mol-Kelvin    Cal/Mol-Kelvin
 Total                   34.327             10.191             63.675
 Electronic               0.000              0.000              0.000
 Translational            0.889              2.981             38.656
 Rotational               0.889              2.981             23.732
 Vibrational             32.550              4.230              1.287
 Vibration     1          0.964              1.020              0.440

 Optimization completed.
    -- Stationary point found.
 Normal termination of Gaussian 09 at Wed Jan 19 11:01:13 2011.
