 Gaussian 98, Revision A.6,
 Gaussian 98:  IBM-RS6000-G98RevA.6 19-Oct-1998

 ---------------------
 #HF/6-31+G** opt freq
 ---------------------

 ----------------------------------------
 1H tetrazole c CH-NH-N=N-N= casno=288948
 ----------------------------------------
 Symbolic Z-matrix:
 Charge =  0 Multiplicity = 1

 SCF Done:  E(RHF) =  -256.767607569     A.U. after   15 cycles
 SCF Done:  E(RHF) =  -256.767608766     A.U. after   10 cycles
 SCF Done:  E(RHF) =  -256.767613021     A.U. after   10 cycles
 Optimization completed.
    -- Stationary point found.
 Normal termination of Gaussian 98.

 --------------------------------------------------
 #N Geom=AllCheck Guess=TCheck RHF/6-31+G(d,p) Freq
 --------------------------------------------------

 1H tetrazole c CH-NH-N=N-N= casno=288948
 ----------------------------------------
 Redundant internal coordinates taken from checkpointfile:
 /wrk/rdj3/Gau-5322.chk
 Charge =  0 Multiplicity = 1

                         Standard orientation:
 ---------------------------------------------------------------------
 Center     Atomic     Atomic              Coordinates (Angstroms)
 Number     Number      Type              X           Y           Z
 ---------------------------------------------------------------------
    1          7             0       -0.716834   -0.902140    0.000000
    2          7             0       -1.094922    0.291377    0.000000
    3          7             0        0.000000    1.039650    0.000000
    4          1             0       -0.059466    2.031027    0.000000
    5          7             0        0.621179   -0.989973    0.000000
    6          6             0        1.053254    0.225916    0.000000
    7          1             0        2.073981    0.541082    0.000000
 ---------------------------------------------------------------------

 SCF Done:  E(RHF) =  -256.767613021     A.U. after    1 cycles

  The electronic state is 1-A'.
 Alpha  occ. eigenvalues --  -15.69165 -15.66992 -15.65062 -15.60929 -11.34051
 Alpha  occ. eigenvalues --   -1.52960  -1.27420  -1.21738  -0.92126  -0.90331
 Alpha  occ. eigenvalues --   -0.81578  -0.69521  -0.69004  -0.57843  -0.48107
 Alpha  occ. eigenvalues --   -0.46945  -0.46440  -0.43029
 Alpha virt. eigenvalues --    0.05156   0.08247   0.08838   0.10055   0.14036
 Alpha virt. eigenvalues --    0.14776   0.16336   0.18343   0.18967   0.20642
 Alpha virt. eigenvalues --    0.22249   0.23664   0.24715   0.27481   0.29054

  Exact polarizability:  38.567   0.214  39.228   0.000   0.000  22.447
 Approx polarizability:  37.652   0.076  40.323   0.000   0.000  23.098

                     1                      2                      3
                    A"                     A"                     A"
 Frequencies --   630.4896               745.9578               809.7199
 Red. masses --     1.6539                 2.0329                 9.5263
 Frc consts  --     0.3874                 0.6665                 3.6800
 IR Inten    --   119.7755                 8.5658                 8.3302
 Raman Activ --     0.1697                 0.2909                 0.0954

                     4                      5                      6
                    A"                     A'                     A'
 Frequencies --  1007.9096              1089.6902              1111.3392
 Red. masses --     1.3780                 4.7817                 7.3709
 Frc consts  --     0.8248                 3.3453                 5.3637
 IR Inten    --    12.9038                 1.8996                 0.9129
 Raman Activ --     0.1468                 1.5597                 1.9997

                     7                      8                      9
                    A'                     A'                     A'
 Frequencies --  1179.2407              1199.7852              1255.6832
 Red. masses --     3.5722                 2.7055                 2.3965
 Frc consts  --     2.9268                 2.2946                 2.2263
 IR Inten    --    26.0771                34.3875                19.9015
 Raman Activ --     5.8914                 2.6450                 5.4656

                    10                     11                     12
                    A'                     A'                     A'
 Frequencies --  1424.4774              1544.4435              1623.2275
 Red. masses --     2.7599                 5.7170                 3.2665
 Frc consts  --     3.2996                 8.0345                 5.0709
 IR Inten    --     1.2702                38.0588                13.0306
 Raman Activ --    14.1986                23.5382                 9.3609

                    13                     14                     15
                    A'                     A'                     A'
 Frequencies --  1715.0125              3471.0110              3928.5720
 Red. masses --     3.8137                 1.1045                 1.0854
 Frc consts  --     6.6090                 7.8399                 9.8699
 IR Inten    --    24.4920                 1.0068               153.2430
 Raman Activ --     2.0082                64.6940                66.9731

 - Thermochemistry -
 -------------------
 Temperature   298.150 Kelvin.  Pressure   1.00000 Atm.
 Atom  1 has atomic number  7 and mass  14.00307

 Molecular mass:    70.02795 amu.
 Principal axes and moments of inertia in atomic units:
                           1         2         3
     EIGENVALUES --   165.45951 168.06432 333.52383
           X            0.94146   0.33711   0.00000
           Y           -0.33711   0.94146   0.00000
           Z            0.00000   0.00000   1.00000
 THIS MOLECULE IS AN ASYMMETRIC TOP.
 ROTATIONAL SYMMETRY NUMBER  1.
 ROTATIONAL TEMPERATURES (KELVIN)      0.52347     0.51536     0.25969
 ROTATIONAL CONSTANTS (GHZ)           10.90745    10.73840     5.41113
 Zero-point vibrational energy     135994.8 (Joules/Mol)
                                   32.50355 (Kcal/Mol)
 VIBRATIONAL TEMPERATURES:    907.13  1073.26  1165.00  1450.15  1567.81
          (KELVIN)           1598.96  1696.65  1726.21  1806.64  2049.49
                             2222.10  2335.45  2467.51  4993.98  5652.31

 Zero-point correction=                           0.051798 (Hartree/Particle)
 Thermal correction to Energy=                    0.055095
 Thermal correction to Enthalpy=                  0.056039
 Thermal correction to Gibbs Free Energy=         0.025808
 Sum of electronic and zero-point Energies=           -256.715815
 Sum of electronic and thermal Energies=              -256.712518
 Sum of electronic and thermal Enthalpies=            -256.711574
 Sum of electronic and thermal Free Energies=         -256.741805

                     E (Thermal)             CV                S
                      KCAL/MOL        CAL/MOL-KELVIN    CAL/MOL-KELVIN
 TOTAL                   34.573             10.076             63.627
 ELECTRONIC               0.000              0.000              0.000
 TRANSLATIONAL            0.889              2.981             38.656
 ROTATIONAL               0.889              2.981             23.743
 VIBRATIONAL             32.795              4.114              1.228
                       Q            LOG10(Q)             LN(Q)
 TOTAL BOT       0.134676D-11        -11.870709        -27.333317
 TOTAL V=0       0.900363D+12         11.954418         27.526064
 VIB (BOT)       0.169601D-23        -23.770573        -54.733766
 VIB (V=0)       0.113385D+01          0.054554          0.125615
 ELECTRONIC      0.100000D+01          0.000000          0.000000
 TRANSLATIONAL   0.230339D+08          7.362368         16.952478
 ROTATIONAL      0.344744D+05          4.537496         10.447972
 ***** Axes restored to original set *****
 -------------------------------------------------------------------
 Center     Atomic                   Forces (Hartrees/Bohr)
 Number     Number              X              Y              Z
 -------------------------------------------------------------------
    1          7          -0.000082622   -0.000105329    0.000000000
    2          7           0.000082569   -0.000018902    0.000000000
    3          7          -0.000092303   -0.000344501    0.000000000
    4          1           0.000113298    0.000139860    0.000000000
    5          7           0.000057522    0.000208173    0.000000000
    6          6          -0.000001126    0.000080002    0.000000000
    7          1          -0.000077338    0.000040697    0.000000000
 -------------------------------------------------------------------
 Cartesian Forces:  Max     0.000344501 RMS     0.000108096

 GradGradGradGradGradGradGradGradGradGradGradGradGradGradGradGradGradGrad
 Berny optimization.
 Internal  Forces:  Max     0.000213856 RMS     0.000070533
 Search for a local minimum.
 Step number   1 out of a maximum of  36
 All quantities printed in internal units (Hartrees-Bohrs-Radians)
 Second derivative matrix not updated -- analytic derivatives used.
     Eigenvalues ---    0.00955   0.03231   0.08330   0.08984   0.12253
     Eigenvalues ---    0.12677   0.26143   0.31295   0.42117   0.42945
     Eigenvalues ---    0.53465   0.54834   0.59420   0.69872   0.77945
     Eigenvalues --- 1000.000001000.000001000.000001000.000001000.00000
     Eigenvalues --- 1000.000001000.000001000.000001000.000001000.00000
     Eigenvalues --- 1000.00000
 Angle between quadratic step and forces=  17.35 degrees.
 Linear search not attempted -- first point.
 Iteration  1 RMS(Cart)=  0.00011856 RMS(Int)=  0.00000001
 Iteration  2 RMS(Cart)=  0.00000001 RMS(Int)=  0.00000000
 Variable       Old X    -DE/DX   Delta X   Delta X   Delta X     New X
                                 (Linear)    (Quad)   (Total)
    R1        2.36588   0.00001   0.00000   0.00012   0.00012   2.36600
    R2        2.53392  -0.00007   0.00000  -0.00021  -0.00021   2.53371
    R3        2.50613  -0.00001   0.00000  -0.00008  -0.00008   2.50604
    R4        1.87680   0.00018   0.00000   0.00033   0.00033   1.87713
    R5        2.51519  -0.00021   0.00000  -0.00036  -0.00036   2.51482
    R6        2.43846  -0.00009   0.00000  -0.00009  -0.00009   2.43837
    R7        2.01875  -0.00009   0.00000  -0.00021  -0.00021   2.01854
    A1        1.94313  -0.00014   0.00000  -0.00021  -0.00021   1.94292
    A2        1.86351   0.00003   0.00000   0.00000   0.00000   1.86352
    A3        2.11039   0.00000   0.00000   0.00000   0.00000   2.11039
    A4        1.88429   0.00002   0.00000   0.00009   0.00009   1.88438
    A5        2.28851  -0.00002   0.00000  -0.00009  -0.00009   2.28842
    A6        1.84669   0.00010   0.00000   0.00019   0.00019   1.84688
    A7        1.88716  -0.00001   0.00000  -0.00007  -0.00007   1.88709
    A8        2.18431   0.00000   0.00000   0.00001   0.00001   2.18432
    A9        2.21172   0.00002   0.00000   0.00006   0.00006   2.21177
    D1        0.00000   0.00000   0.00000   0.00000   0.00000   0.00000
    D2        0.00000   0.00000   0.00000   0.00000   0.00000   0.00000
    D3        3.14159   0.00000   0.00000   0.00000   0.00000   3.14159
    D4        0.00000   0.00000   0.00000   0.00000   0.00000   0.00000
    D5        0.00000   0.00000   0.00000   0.00000   0.00000   0.00000
    D6        3.14159   0.00000   0.00000   0.00000   0.00000   3.14159
    D7        3.14159   0.00000   0.00000   0.00000   0.00000   3.14159
    D8        0.00000   0.00000   0.00000   0.00000   0.00000   0.00000
    D9        0.00000   0.00000   0.00000   0.00000   0.00000   0.00000
   D10        3.14159   0.00000   0.00000   0.00000   0.00000   3.14159
         Item               Value     Threshold  Converged?
 Maximum Force            0.000214     0.000450     YES
 RMS     Force            0.000071     0.000300     YES
 Maximum Displacement     0.000252     0.001800     YES
 RMS     Displacement     0.000119     0.001200     YES
 Predicted change in Energy=-1.170626D-07
 Optimization completed.
    -- Stationary point found.
                         ----------------------------
                         !   Optimized Parameters   !
                         ! (Angstroms and Degrees)  !
 ------------------------                            -------------------------
 ! Name  Definition              Value          Derivative Info.             !
 -----------------------------------------------------------------------------
 ! R1    R(1,2)                  1.252          -DE/DX =    0.               !
 ! R2    R(1,5)                  1.3409         -DE/DX =   -0.0001           !
 ! R3    R(2,3)                  1.3262         -DE/DX =    0.               !
 ! R4    R(3,4)                  0.9932         -DE/DX =    0.0002           !
 ! R5    R(3,6)                  1.331          -DE/DX =   -0.0002           !
 ! R6    R(5,6)                  1.2904         -DE/DX =   -0.0001           !
 ! R7    R(6,7)                  1.0683         -DE/DX =   -0.0001           !
 ! A1    A(2,1,5)              111.3332         -DE/DX =   -0.0001           !
 ! A2    A(1,2,3)              106.7714         -DE/DX =    0.               !
 ! A3    A(2,3,4)              120.9162         -DE/DX =    0.               !
 ! A4    A(2,3,6)              107.9618         -DE/DX =    0.               !
 ! A5    A(4,3,6)              131.122          -DE/DX =    0.               !
 ! A6    A(1,5,6)              105.8073         -DE/DX =    0.0001           !
 ! A7    A(3,6,5)              108.1263         -DE/DX =    0.               !
 ! A8    A(3,6,7)              125.1517         -DE/DX =    0.               !
 ! A9    A(5,6,7)              126.722          -DE/DX =    0.               !
 ! D1    D(5,1,2,3)              0.             -DE/DX =    0.               !
 ! D2    D(2,1,5,6)              0.             -DE/DX =    0.               !
 ! D3    D(1,2,3,4)            180.             -DE/DX =    0.               !
 ! D4    D(1,2,3,6)              0.             -DE/DX =    0.               !
 ! D5    D(2,3,6,5)              0.             -DE/DX =    0.               !
 ! D6    D(2,3,6,7)            180.             -DE/DX =    0.               !
 ! D7    D(4,3,6,5)            180.             -DE/DX =    0.               !
 ! D8    D(4,3,6,7)              0.             -DE/DX =    0.               !
 ! D9    D(1,5,6,3)              0.             -DE/DX =    0.               !
 ! D10   D(1,5,6,7)            180.             -DE/DX =    0.               !
 -----------------------------------------------------------------------------
 GradGradGradGradGradGradGradGradGradGradGradGradGradGradGradGradGradGrad

 1\1\GINC-QUANTUM\Freq\RHF\6-31+G(d,p)\C1H2N4\RDJ3\03-Apr-2000\0\\#N GE
 OM=ALLCHECK GUESS=TCHECK RHF/6-31+G(D,P) FREQ\\1H tetrazole c CH-NH-N=
 N-N= casno=288948\\0,1\N,-1.1236593995,-0.2551406487,0.\N,-0.671743786
 5,0.9124225633,0.\N,0.650554043,0.8109570137,0.\H,1.2245168473,1.62146
 99779,0.\N,-0.1349315965,-1.1609063717,0.\C,0.9629340613,-0.4828462879
 ,0.\H,1.9563439612,-0.8757201473,0.\\Version=IBM-RS6000-G98RevA.6\Stat
 e=1-A'\HF=-256.767613\RMSD=1.025e-09\RMSF=1.081e-04\Dipole=2.0897299,0
 .8777366,0.\DipoleDeriv=0.0111546,-0.2262131,0.,-0.22596,0.1198434,0.,
 0.,0.,-0.157411,0.270491,0.3218194,0.,0.2589311,-0.347543,0.,0.,0.,-0.
 0979189,-0.4384349,-0.3787235,0.,-0.2420743,-0.3666399,0.,0.,0.,-0.203
 5254,0.2588749,0.0725772,0.,0.0561919,0.3204583,0.,0.,0.,0.3780306,-0.
 5307779,0.176355,0.,-0.0714911,-0.3725276,0.,0.,0.,-0.2559302,0.366953
 1,0.0274622,0.,0.2127296,0.5271587,0.,0.,0.,0.1617229,0.0617392,0.0067
 229,0.,0.0116727,0.1192501,0.,0.,0.,0.1750319\Polar=39.0352431,0.36874
 94,38.759892,0.,0.,22.4472782\PolarDeriv=-7.5511443,-3.251768,-2.54830
 17,0.,0.,-1.7860561,-3.4114851,3.8750591,-5.6464014,0.,0.,-1.2267804,0
 .,0.,0.,-2.7664218,-1.3197315,0.,-1.3359905,0.7817766,-1.9543919,0.,0.
 ,0.1217522,4.2420815,-4.9623562,9.8625449,0.,0.,1.6753258,0.,0.,0.,-0.
 8982422,2.7137533,0.,-0.793639,0.2624516,0.6014576,0.,0.,-0.340946,1.5
 464112,1.1913061,-1.3932924,0.,0.,1.9808394,0.,0.,0.,0.6693382,2.20022
 67,0.,2.8919718,2.3598587,2.6379582,0.,0.,0.365994,2.3441768,2.6882097
 ,5.542062,0.,0.,0.497731,0.,0.,0.,0.2445559,0.2584929,0.,-4.0561997,3.
 8950302,-3.1672436,0.,0.,-2.0145415,-2.3876184,-1.6545894,-8.2202979,0
 .,0.,-1.9994178,0.,0.,0.,-1.2255173,-2.4664893,0.,3.2399524,-1.7385582
 ,2.8912767,0.,0.,3.1047925,-0.2319204,-3.0439503,1.4802526,0.,0.,-0.64
 06363,0.,0.,0.,3.6371534,-1.174176,0.,7.6050493,-2.3087908,1.5392448,0
 .,0.,0.5490049,-2.1016456,1.9063209,-1.6248678,0.,0.,-0.2870616,0.,0.,
 0.,0.339134,-0.2120761,0.\HyperPolar=13.487576,-1.9388392,-11.9209294,
 1.1534753,0.,0.,0.,9.1814417,-8.7890795,0.\PG=CS [SG(C1H2N4)]\NImag=0\
 \0.69184755,0.13767175,0.68212812,0.,0.,0.14974314,-0.19432156,-0.1568
 5612,0.,0.55547821,-0.10376621,-0.48637680,0.,-0.00026425,0.83539435,0
 .,0.,-0.11747136,0.,0.,0.13869270,-0.12864540,-0.13555139,0.,-0.291286
 01,0.02474079,0.,0.82533045,-0.03381049,-0.08308031,0.,0.07502285,-0.1
 4475863,0.,0.22668709,1.09058602,0.,0.,0.03339036,0.,0.,-0.08186372,0.
 ,0.,0.10935666,-0.01262269,0.00078566,0.,-0.00622966,-0.03901384,0.,-0
 .23334678,-0.20095963,0.,0.23170398,0.00821234,0.00472527,0.,0.0013955
 9,0.01471642,0.,-0.21297283,-0.39579078,0.,0.22409094,0.38785353,0.,0.
 ,0.00860699,0.,0.,-0.01357998,0.,0.,-0.00836941,0.,0.,0.01577641,-0.21
 711421,0.07265407,0.,0.01498486,0.11525160,0.,-0.00841253,-0.14515097,
 0.,0.00224446,0.00152166,0.,0.61646829,0.04201786,-0.17509194,0.,-0.02
 470899,-0.14391513,0.,0.00826313,-0.09594557,0.,0.00949322,-0.00690499
 ,0.,0.12046696,0.66306122,0.,0.,-0.10737558,0.,0.,0.04339348,0.,0.,0.0
 2521708,0.,0.,0.00883147,0.,0.,0.13106842,-0.13549150,0.08303104,0.,-0
 .07937070,0.00610659,0.,-0.17017518,0.08042621,0.,0.01876583,-0.023017
 70,0.,-0.39144981,-0.16838846,0.,1.11636725,-0.04333828,0.05863308,0.,
 0.10684980,-0.06759661,0.,0.05137084,-0.36659128,0.,0.00585095,-0.0042
 7621,0.,-0.14511447,-0.25950493,0.,-0.09251410,0.75609578,0.,0.,0.0222
 7099,0.,0.,0.02360209,0.,0.,-0.07766576,0.,0.,-0.00991149,0.,0.,-0.097
 42785,0.,0.,0.18299945,-0.00365219,-0.00173500,0.,0.00074486,-0.003054
 68,0.,0.00653544,-0.00221505,0.,-0.00051515,0.00077000,0.,-0.01672105,
 0.01285628,0.,-0.35864589,0.11689526,0.,0.37225398,-0.00698697,-0.0009
 3742,0.,-0.00143889,-0.00746361,0.,0.03746237,-0.00441945,0.,-0.000247
 30,-0.00032325,0.,-0.01962884,0.01830135,0.,0.11435643,-0.11675983,0.,
 -0.12351680,0.11160220,0.,0.,0.01083546,0.,0.,0.00722678,0.,0.,-0.0000
 6520,0.,0.,-0.00135399,0.,0.,-0.00370703,0.,0.,-0.04386743,0.,0.,0.030
 93141\\0.00008262,0.00010533,0.,-0.00008257,0.00001890,0.,0.00009230,0
 .00034450,0.,-0.00011330,-0.00013986,0.,-0.00005752,-0.00020817,0.,0.0
 0000113,-0.00008000,0.,0.00007734,-0.00004070,0.\\\@

 ON A CLEAR DISK YOU CAN SEEK FOREVER.
 Job cpu time:  0 days  0 hours  8 minutes  7.0 seconds.
 File lengths (MBytes):  RWF=   21 Int=    0 D2E=    0 Chk=    3 Scr=    1
 Normal termination of Gaussian 98.
