 Gaussian 98, Revision A.6,
 Gaussian 98:  IBM-RS6000-G98RevA.6 19-Oct-1998

 --------------------
 #HF/cc-pVDZ opt freq
 --------------------

 ----------------------------------------
 1H tetrazole c CH-NH-N=N-N= casno=288948
 ----------------------------------------
 Symbolic Z-matrix:
 Charge =  0 Multiplicity = 1

 SCF Done:  E(RHF) =  -256.780055157     A.U. after   15 cycles
 SCF Done:  E(RHF) =  -256.780122658     A.U. after   11 cycles
 SCF Done:  E(RHF) =  -256.780127674     A.U. after   10 cycles
 SCF Done:  E(RHF) =  -256.780129529     A.U. after    8 cycles
 Optimization completed.
    -- Stationary point found.
 Normal termination of Gaussian 98.

 ----------------------------------------------
 #N Geom=AllCheck Guess=TCheck RHF/CC-pVDZ Freq
 ----------------------------------------------

 1H tetrazole c CH-NH-N=N-N= casno=288948
 ----------------------------------------
 Redundant internal coordinates taken from checkpointfile:
 /wrk/rdj3/Gau-38388.chk
 Charge =  0 Multiplicity = 1

                         Standard orientation:
 ---------------------------------------------------------------------
 Center     Atomic     Atomic              Coordinates (Angstroms)
 Number     Number      Type              X           Y           Z
 ---------------------------------------------------------------------
    1          7             0       -0.717770   -0.899788    0.000000
    2          7             0       -1.094137    0.293278    0.000000
    3          7             0        0.000000    1.039877    0.000000
    4          1             0       -0.056214    2.035796    0.000000
    5          7             0        0.620188   -0.992671    0.000000
    6          6             0        1.052996    0.223082    0.000000
    7          1             0        2.080272    0.540845    0.000000
 ---------------------------------------------------------------------

 SCF Done:  E(RHF) =  -256.780129529     A.U. after    1 cycles

  The electronic state is 1-A'.
 Alpha  occ. eigenvalues --  -15.67871 -15.65398 -15.63440 -15.59495 -11.33512
 Alpha  occ. eigenvalues --   -1.52063  -1.26528  -1.20854  -0.91101  -0.89437
 Alpha  occ. eigenvalues --   -0.80582  -0.68762  -0.67987  -0.57002  -0.47334
 Alpha  occ. eigenvalues --   -0.46076  -0.45627  -0.42212
 Alpha virt. eigenvalues --    0.15112   0.15843   0.19997   0.20274   0.35347
 Alpha virt. eigenvalues --    0.39600   0.42707   0.51260   0.61773   0.66063
 Alpha virt. eigenvalues --    0.69114   0.76700   0.80254   0.85165   0.86987

  Exact polarizability:  34.513   0.807  34.549   0.000   0.000  15.701
 Approx polarizability:  35.587   0.389  37.778   0.000   0.000  17.278

                     1                      2                      3
                    A"                     A"                     A"
 Frequencies --   610.1966               749.3596               816.9899
 Red. masses --     1.5627                 2.1688                 9.2968
 Frc consts  --     0.3428                 0.7176                 3.6561
 IR Inten    --   110.0919                 3.5886                 8.2493
 Raman Activ --     0.7482                 0.2697                 0.0999

                     4                      5                      6
                    A"                     A'                     A'
 Frequencies --  1004.9484              1088.2929              1113.3741
 Red. masses --     1.3934                 4.0490                 6.9386
 Frc consts  --     0.8291                 2.8255                 5.0676
 IR Inten    --    10.6658                 2.2297                 2.1054
 Raman Activ --     0.1538                 1.8133                 2.6433

                     7                      8                      9
                    A'                     A'                     A'
 Frequencies --  1175.1794              1192.2838              1252.2808
 Red. masses --     3.2570                 2.4769                 2.7550
 Frc consts  --     2.6502                 2.0745                 2.5455
 IR Inten    --    27.3893                32.9515                19.7638
 Raman Activ --     4.8944                 1.6938                 8.5418

                    10                     11                     12
                    A'                     A'                     A'
 Frequencies --  1416.4532              1546.2437              1623.2001
 Red. masses --     2.8327                 5.4156                 3.5106
 Frc consts  --     3.3486                 7.6287                 5.4498
 IR Inten    --     1.1561                36.0737                10.6022
 Raman Activ --    10.5708                17.4912                 7.9326

                    13                     14                     15
                    A'                     A'                     A'
 Frequencies --  1713.4898              3461.8081              3900.1694
 Red. masses --     4.3366                 1.1051                 1.0862
 Frc consts  --     7.5017                 7.8027                 9.7345
 IR Inten    --    20.9968                 0.8442               151.7378
 Raman Activ --     1.6293                62.3207                62.8308

 - Thermochemistry -
 -------------------
 Temperature   298.150 Kelvin.  Pressure   1.00000 Atm.
 Atom  1 has atomic number  7 and mass  14.00307

 Molecular mass:    70.02795 amu.
 Principal axes and moments of inertia in atomic units:
                           1         2         3
     EIGENVALUES --   165.39559 168.26342 333.65901
           X            0.90712   0.42087   0.00000
           Y           -0.42087   0.90712   0.00000
           Z            0.00000   0.00000   1.00000
 THIS MOLECULE IS AN ASYMMETRIC TOP.
 ROTATIONAL SYMMETRY NUMBER  1.
 ROTATIONAL TEMPERATURES (KELVIN)      0.52367     0.51475     0.25959
 ROTATIONAL CONSTANTS (GHZ)           10.91166    10.72569     5.40894
 Zero-point vibrational energy     135562.5 (Joules/Mol)
                                   32.40020 (Kcal/Mol)
 WARNING-- EXPLICIT CONSIDERATION OF   1 DEGREES OF FREEDOM AS
           VIBRATIONS MAY CAUSE SIGNIFICANT ERROR
 VIBRATIONAL TEMPERATURES:    877.93  1078.16  1175.46  1445.89  1565.80
          (KELVIN)           1601.89  1690.81  1715.42  1801.74  2037.95
                             2224.69  2335.41  2465.32  4980.74  5611.44

 Zero-point correction=                           0.051633 (Hartree/Particle)
 Thermal correction to Energy=                    0.054939
 Thermal correction to Enthalpy=                  0.055883
 Thermal correction to Gibbs Free Energy=         0.025638
 Sum of electronic and zero-point Energies=           -256.728497
 Sum of electronic and thermal Energies=              -256.725190
 Sum of electronic and thermal Enthalpies=            -256.724246
 Sum of electronic and thermal Free Energies=         -256.754491

                     E (Thermal)             CV                S
                      KCAL/MOL        CAL/MOL-KELVIN    CAL/MOL-KELVIN
 TOTAL                   34.475             10.115             63.656
 ELECTRONIC               0.000              0.000              0.000
 TRANSLATIONAL            0.889              2.981             38.656
 ROTATIONAL               0.889              2.981             23.744
 VIBRATIONAL             32.697              4.154              1.255
 VIBRATION  1             0.969              1.010              0.432
                       Q            LOG10(Q)             LN(Q)
 TOTAL BOT       0.161138D-11        -11.792802        -27.153931
 TOTAL V=0       0.904844D+12         11.956574         27.531028
 VIB (BOT)       0.202802D-23        -23.692927        -54.554982
 VIB (BOT)  1    0.242140D+00         -0.615934         -1.418240
 VIB (V=0)       0.113880D+01          0.056448          0.129977
 VIB (V=0)  1    0.105555D+01          0.023477          0.054058
 ELECTRONIC      0.100000D+01          0.000000          0.000000
 TRANSLATIONAL   0.230339D+08          7.362368         16.952478
 ROTATIONAL      0.344951D+05          4.537758         10.448573
 ***** Axes restored to original set *****
 -------------------------------------------------------------------
 Center     Atomic                   Forces (Hartrees/Bohr)
 Number     Number              X              Y              Z
 -------------------------------------------------------------------
    1          7          -0.000168787   -0.000002727    0.000000000
    2          7           0.000141365   -0.000094627    0.000000000
    3          7          -0.000032186    0.000139018    0.000000000
    4          1           0.000018345   -0.000015453    0.000000000
    5          7           0.000080526    0.000030238    0.000000000
    6          6          -0.000048564   -0.000074221    0.000000000
    7          1           0.000009301    0.000017772    0.000000000
 -------------------------------------------------------------------
 Cartesian Forces:  Max     0.000168787 RMS     0.000066919

 GradGradGradGradGradGradGradGradGradGradGradGradGradGradGradGradGradGrad
 Berny optimization.
 Internal  Forces:  Max     0.000107476 RMS     0.000038170
 Search for a local minimum.
 Step number   1 out of a maximum of  36
 All quantities printed in internal units (Hartrees-Bohrs-Radians)
 Second derivative matrix not updated -- analytic derivatives used.
     Eigenvalues ---    0.00895   0.03240   0.08508   0.09114   0.11991
     Eigenvalues ---    0.12403   0.25946   0.31373   0.41907   0.43109
     Eigenvalues ---    0.53425   0.54329   0.59825   0.70616   0.78617
     Eigenvalues --- 1000.000001000.000001000.000001000.000001000.00000
     Eigenvalues --- 1000.000001000.000001000.000001000.000001000.00000
     Eigenvalues --- 1000.00000
 Angle between quadratic step and forces=  27.34 degrees.
 Linear search not attempted -- first point.
 Iteration  1 RMS(Cart)=  0.00008492 RMS(Int)=  0.00000001
 Iteration  2 RMS(Cart)=  0.00000001 RMS(Int)=  0.00000000
 Variable       Old X    -DE/DX   Delta X   Delta X   Delta X     New X
                                 (Linear)    (Quad)   (Total)
    R1        2.36409   0.00003   0.00000   0.00002   0.00002   2.36411
    R2        2.53446   0.00005   0.00000   0.00020   0.00020   2.53466
    R3        2.50312  -0.00005   0.00000  -0.00020  -0.00020   2.50292
    R4        1.88501   0.00000   0.00000  -0.00001  -0.00001   1.88500
    R5        2.51834   0.00003   0.00000   0.00016   0.00016   2.51850
    R6        2.43868  -0.00002   0.00000  -0.00013  -0.00013   2.43855
    R7        2.03202   0.00000   0.00000   0.00001   0.00001   2.03203
    A1        1.94569  -0.00011   0.00000  -0.00023  -0.00023   1.94546
    A2        1.86401   0.00011   0.00000   0.00025   0.00025   1.86426
    A3        2.11320   0.00005   0.00000   0.00021   0.00021   2.11341
    A4        1.88306  -0.00005   0.00000  -0.00012  -0.00012   1.88295
    A5        2.28692   0.00000   0.00000  -0.00009  -0.00009   2.28683
    A6        1.84350   0.00004   0.00000   0.00006   0.00006   1.84356
    A7        1.88853   0.00002   0.00000   0.00004   0.00004   1.88856
    A8        2.18186  -0.00003   0.00000  -0.00019  -0.00019   2.18167
    A9        2.21280   0.00001   0.00000   0.00015   0.00015   2.21295
    D1        0.00000   0.00000   0.00000   0.00000   0.00000   0.00000
    D2        0.00000   0.00000   0.00000   0.00000   0.00000   0.00000
    D3        3.14159   0.00000   0.00000   0.00000   0.00000   3.14159
    D4        0.00000   0.00000   0.00000   0.00000   0.00000   0.00000
    D5        0.00000   0.00000   0.00000   0.00000   0.00000   0.00000
    D6        3.14159   0.00000   0.00000   0.00000   0.00000   3.14159
    D7        3.14159   0.00000   0.00000   0.00000   0.00000   3.14159
    D8        0.00000   0.00000   0.00000   0.00000   0.00000   0.00000
    D9        0.00000   0.00000   0.00000   0.00000   0.00000   0.00000
   D10        3.14159   0.00000   0.00000   0.00000   0.00000   3.14159
         Item               Value     Threshold  Converged?
 Maximum Force            0.000107     0.000450     YES
 RMS     Force            0.000038     0.000300     YES
 Maximum Displacement     0.000233     0.001800     YES
 RMS     Displacement     0.000085     0.001200     YES
 Predicted change in Energy=-5.248232D-08
 Optimization completed.
    -- Stationary point found.
                         ----------------------------
                         !   Optimized Parameters   !
                         ! (Angstroms and Degrees)  !
 ------------------------                            -------------------------
 ! Name  Definition              Value          Derivative Info.             !
 -----------------------------------------------------------------------------
 ! R1    R(1,2)                  1.251          -DE/DX =    0.               !
 ! R2    R(1,5)                  1.3412         -DE/DX =    0.               !
 ! R3    R(2,3)                  1.3246         -DE/DX =   -0.0001           !
 ! R4    R(3,4)                  0.9975         -DE/DX =    0.               !
 ! R5    R(3,6)                  1.3326         -DE/DX =    0.               !
 ! R6    R(5,6)                  1.2905         -DE/DX =    0.               !
 ! R7    R(6,7)                  1.0753         -DE/DX =    0.               !
 ! A1    A(2,1,5)              111.4797         -DE/DX =   -0.0001           !
 ! A2    A(1,2,3)              106.7997         -DE/DX =    0.0001           !
 ! A3    A(2,3,4)              121.0776         -DE/DX =    0.               !
 ! A4    A(2,3,6)              107.8915         -DE/DX =   -0.0001           !
 ! A5    A(4,3,6)              131.0309         -DE/DX =    0.               !
 ! A6    A(1,5,6)              105.6245         -DE/DX =    0.               !
 ! A7    A(3,6,5)              108.2046         -DE/DX =    0.               !
 ! A8    A(3,6,7)              125.0115         -DE/DX =    0.               !
 ! A9    A(5,6,7)              126.7839         -DE/DX =    0.               !
 ! D1    D(5,1,2,3)              0.             -DE/DX =    0.               !
 ! D2    D(2,1,5,6)              0.             -DE/DX =    0.               !
 ! D3    D(1,2,3,4)            180.             -DE/DX =    0.               !
 ! D4    D(1,2,3,6)              0.             -DE/DX =    0.               !
 ! D5    D(2,3,6,5)              0.             -DE/DX =    0.               !
 ! D6    D(2,3,6,7)            180.             -DE/DX =    0.               !
 ! D7    D(4,3,6,5)            180.             -DE/DX =    0.               !
 ! D8    D(4,3,6,7)              0.             -DE/DX =    0.               !
 ! D9    D(1,5,6,3)              0.             -DE/DX =    0.               !
 ! D10   D(1,5,6,7)            180.             -DE/DX =    0.               !
 -----------------------------------------------------------------------------
 GradGradGradGradGradGradGradGradGradGradGradGradGradGradGradGradGradGrad

 1\1\GINC-QUANTUM\Freq\RHF\CC-pVDZ\C1H2N4\RDJ3\20-Mar-2000\0\\#N GEOM=A
 LLCHECK GUESS=TCHECK RHF/CC-PVDZ FREQ\\1H tetrazole c CH-NH-N=N-N= cas
 no=288948\\0,1\N,-1.1225577316,-0.25431789,0.\N,-0.6712404386,0.912460
 2709,0.\N,0.64954196,0.8120590396,0.\H,1.2277273738,1.6249039161,0.\N,
 -0.1357389524,-1.1625851978,0.\C,0.9616477704,-0.4835276518,0.\H,1.962
 3521412,-0.8770515647,0.\\Version=IBM-RS6000-G98RevA.6\State=1-A'\HF=-
 256.7801295\RMSD=2.502e-09\RMSF=6.692e-05\Dipole=2.0020413,0.8560102,0
 .\DipoleDeriv=-0.014524,-0.2245146,0.,-0.2037165,0.0834227,0.,0.,0.,-0
 .1439554,0.2552739,0.367781,0.,0.2297315,-0.3473483,0.,0.,0.,-0.093550
 2,-0.4138337,-0.3590475,0.,-0.2379931,-0.3306392,0.,0.,0.,-0.1933095,0
 .2537085,0.0775504,0.,0.0576151,0.3199528,0.,0.,0.,0.3567037,-0.503821
 1,0.1507359,0.,-0.0577373,-0.3714993,0.,0.,0.,-0.2633239,0.3616727,-0.
 0204003,0.,0.1978098,0.5212566,0.,0.,0.,0.1751175,0.0615237,0.007895,0
 .,0.0142905,0.1248546,0.,0.,0.,0.1623179\Polar=35.3145684,0.1947594,33
 .748251,0.,0.,15.7010744\PolarDeriv=-8.1090113,-3.5186372,-0.9082991,0
 .,0.,-0.5109752,-2.8590958,2.8780604,-5.0618592,0.,0.,0.013555,0.,0.,0
 .,-2.9278682,-1.3488863,0.,-1.4764029,1.0569641,-2.2231567,0.,0.,0.062
 0742,3.4241564,-4.8603519,10.3720349,0.,0.,0.2957166,0.,0.,0.,-1.43810
 02,3.1348888,0.,-0.1622647,0.4621352,0.165654,0.,0.,-0.3565644,1.34346
 44,0.9272942,-1.028836,0.,0.,0.5279576,0.,0.,0.,0.8825089,1.4113812,0.
 ,2.7522133,2.4672983,2.3970208,0.,0.,0.0194639,1.8580384,2.7622724,5.6
 079438,0.,0.,0.1421676,0.,0.,0.,0.5262068,0.7445378,0.,-3.3001656,3.22
 00764,-2.4218873,0.,0.,-0.2120395,-2.0692892,-1.5202871,-8.553057,0.,0
 .,-0.2827581,0.,0.,0.,-1.2070166,-2.8164799,0.,2.9552317,-1.347124,1.4
 227849,0.,0.,0.5825848,0.1957935,-2.1669789,0.2848794,0.,0.,-0.5536272
 ,0.,0.,0.,3.4254522,-0.6880056,0.,7.3403996,-2.3407127,1.5678834,0.,0.
 ,0.4154563,-1.8930677,1.979991,-1.6211059,0.,0.,-0.1430114,0.,0.,0.,0.
 7388171,-0.4374359,0.\HyperPolar=56.9131555,-1.4922615,16.2198511,17.8
 980919,0.,0.,0.,11.4962291,-0.3827201,0.\PG=CS [SG(C1H2N4)]\NImag=0\\0
 .69598454,0.13926595,0.68872198,0.,0.,0.15246659,-0.19479135,-0.158058
 47,0.,0.55866754,-0.10374441,-0.49193900,0.,-0.00056587,0.84317958,0.,
 0.,-0.12000522,0.,0.,0.14169043,-0.13076791,-0.13770346,0.,-0.29380924
 ,0.02462575,0.,0.82447736,-0.03296961,-0.08411674,0.,0.07602293,-0.144
 46659,0.,0.22441918,1.08959481,0.,0.,0.03417558,0.,0.,-0.08295263,0.,0
 .,0.10740204,-0.01269052,0.00092857,0.,-0.00486367,-0.03827930,0.,-0.2
 3057205,-0.19915038,0.,0.22814983,0.00812258,0.00466640,0.,0.00174709,
 0.01426278,0.,-0.21061995,-0.39027769,0.,0.22171028,0.38073626,0.,0.,0
 .00891713,0.,0.,-0.01432914,0.,0.,-0.00641159,0.,0.,0.01501979,-0.2154
 3832,0.07154700,0.,0.01481042,0.11598396,0.,-0.01051965,-0.14511161,0.
 ,0.00232559,0.00157663,0.,0.61542332,0.04149164,-0.17552954,0.,-0.0258
 0806,-0.14493314,0.,0.00982270,-0.09620277,0.,0.00935457,-0.00685781,0
 .,0.12521425,0.66804574,0.,0.,-0.10868205,0.,0.,0.04379818,0.,0.,0.026
 23124,0.,0.,0.00868790,0.,0.,0.13254829,-0.13875101,0.08576860,0.,-0.0
 8086419,0.00495439,0.,-0.16471794,0.08019704,0.,0.01807973,-0.02315137
 ,0.,-0.39117384,-0.17363302,0.,1.11511313,-0.04521860,0.05914101,0.,0.
 10817761,-0.06865561,0.,0.05260885,-0.37098813,0.,0.00569433,-0.002468
 51,0.,-0.15017796,-0.26244092,0.,-0.08792555,0.76046511,0.,0.,0.022202
 26,0.,0.,0.02464290,0.,0.,-0.07825099,0.,0.,-0.01059898,0.,0.,-0.09887
 735,0.,0.,0.18442173,-0.00354542,-0.00174820,0.,0.00085049,-0.00297452
 ,0.,0.00590943,-0.00340756,0.,-0.00042892,0.00061474,0.,-0.01542752,0.
 01355793,0.,-0.35768587,0.11684132,0.,0.37032782,-0.00694754,-0.000944
 12,0.,-0.00151524,-0.00744803,0.,0.03684694,-0.00354289,0.,-0.00025808
 ,-0.00006144,0.,-0.01903226,0.01791844,0.,0.11378990,-0.11505295,0.,-0
 .12288372,0.10913097,0.,0.,0.01092570,0.,0.,0.00715548,0.,0.,-0.000193
 65,0.,0.,-0.00128512,0.,0.,-0.00370621,0.,0.,-0.04353958,0.,0.,0.03064
 337\\0.00016879,0.00000273,0.,-0.00014137,0.00009463,0.,0.00003219,-0.
 00013902,0.,-0.00001834,0.00001545,0.,-0.00008053,-0.00003024,0.,0.000
 04856,0.00007422,0.,-0.00000930,-0.00001777,0.\\\@

 IF I AM NOT FOR MYSELF, WHO WILL BE?
 BUT IF I AM ONLY FOR MYSELF, WHAT AM I?
 THOUGH A SEEKER SINCE MY BIRTH,
 HERE IS ALL I'VE LEARNED ON EARTH,
 THIS IS THE GIST OF WHAT I KNOW:
 GIVE ADVICE AND BUY A FOE.

 PRESSED FOR RULES AND VERITIES,
 ALL I RECOLLECT ARE THESE:
 FEED A COLD TO STARVE A FEVER,
 ARGUE WITH NO TRUE-BELIEVER.
 THINK-TOO-LONG IS NEVER-ACT,
 SCRATCH A MYTH AND FIND A FACT.

 STITCH IN TIME SAVES TWENTY STITCHES,
 GIVE THE RICH TO PLEASE THEM, RICHES.
 GIVE TO LOVE YOU HEARTH AND HALL,
 BUT DO NOT GIVE ADVICE AT ALL.

                                  -- HILLEL
 Job cpu time:  0 days  0 hours  6 minutes 11.6 seconds.
 File lengths (MBytes):  RWF=   10 Int=    0 D2E=    0 Chk=    3 Scr=    1
 Normal termination of Gaussian 98.
