 Gaussian 98, Revision A.6,
 Gaussian 98:  IBM-RS6000-G98RevA.6 19-Oct-1998

 ------------
 #MP2/cc-pVDZ
 ------------

 ----------------------------------------
 1H tetrazole c CH-NH-N=N-N= casno=288948
 ----------------------------------------
 Symbolic Z-matrix:
 Charge =  0 Multiplicity = 1

                         Standard orientation:
 ---------------------------------------------------------------------
 Center     Atomic     Atomic              Coordinates (Angstroms)
 Number     Number      Type              X           Y           Z
 ---------------------------------------------------------------------
    1          7             0       -0.716312   -0.901934    0.000000
    2          7             0       -1.095520    0.291420    0.000000
    3          7             0        0.000000    1.038775    0.000000
    4          1             0       -0.061479    2.030994    0.000000
    5          7             0        0.622151   -0.989495    0.000000
    6          6             0        1.052813    0.225779    0.000000
    7          1             0        2.072370    0.542976    0.000000
 ---------------------------------------------------------------------

 SCF Done:  E(RHF) =  -256.780055157     A.U. after   15 cycles
 E2 =    -0.7749247960D+00 EUMP2 =    -0.25755497995285D+03

  The electronic state is 1-A'.
 Alpha  occ. eigenvalues --  -15.67830 -15.65417 -15.63480 -15.59453 -11.33430
 Alpha  occ. eigenvalues --   -1.52038  -1.26536  -1.20912  -0.91199  -0.89479
 Alpha  occ. eigenvalues --   -0.80725  -0.68763  -0.68096  -0.57058  -0.47305
 Alpha  occ. eigenvalues --   -0.46130  -0.45628  -0.42231
 Alpha virt. eigenvalues --    0.15103   0.15902   0.20074   0.20267   0.35328
 Alpha virt. eigenvalues --    0.39561   0.42702   0.51274   0.61780   0.66020
 Alpha virt. eigenvalues --    0.69150   0.76936   0.80403   0.85242   0.87036

 Normal termination of Gaussian 98.
