 Gaussian 98, Revision A.6,
 Gaussian 98:  IBM-RS6000-G98RevA.6 19-Oct-1998

 --------------------
 #MP2/6-311+G(3df,2p)
 --------------------

 ----------------------------------------
 1H tetrazole c CH-NH-N=N-N= casno=288948
 ----------------------------------------
 Symbolic Z-matrix:
 Charge =  0 Multiplicity = 1

                         Standard orientation:
 ---------------------------------------------------------------------
 Center     Atomic     Atomic              Coordinates (Angstroms)
 Number     Number      Type              X           Y           Z
 ---------------------------------------------------------------------
    1          7             0       -0.716312   -0.901934    0.000000
    2          7             0       -1.095520    0.291420    0.000000
    3          7             0        0.000000    1.038775    0.000000
    4          1             0       -0.061479    2.030994    0.000000
    5          7             0        0.622151   -0.989495    0.000000
    6          6             0        1.052813    0.225779    0.000000
    7          1             0        2.072370    0.542976    0.000000
 ---------------------------------------------------------------------

 SCF Done:  E(RHF) =  -256.846454568     A.U. after   15 cycles
 E2 =    -0.9551120902D+00 EUMP2 =    -0.25780156665835D+03

  The electronic state is 1-A'.
 Alpha  occ. eigenvalues --  -15.67802 -15.65794 -15.64026 -15.59730 -11.33087
 Alpha  occ. eigenvalues --   -1.52149  -1.26777  -1.21104  -0.91638  -0.89875
 Alpha  occ. eigenvalues --   -0.81159  -0.69287  -0.68635  -0.57665  -0.47959
 Alpha  occ. eigenvalues --   -0.46913  -0.46193  -0.42770
 Alpha virt. eigenvalues --    0.04637   0.07686   0.08863   0.09453   0.13743
 Alpha virt. eigenvalues --    0.13947   0.15800   0.17801   0.18188   0.19907
 Alpha virt. eigenvalues --    0.21657   0.22546   0.23562   0.25995   0.26674

 Normal termination of Gaussian 98.
