 Gaussian 98, Revision A.6,
 Gaussian 98:  IBM-RS6000-G98RevA.6 19-Oct-1998

 --------------------------
 #MPW1PW91/6-311G* opt freq
 --------------------------

 ----------------------------------------
 1H tetrazole c CH-NH-N=N-N= casno=288948
 ----------------------------------------
 Symbolic Z-matrix:
 Charge =  0 Multiplicity = 1

 SCF Done:  E(RmPW+HF-PW91) =  -258.243260488     A.U. after   15 cycles
 SCF Done:  E(RmPW+HF-PW91) =  -258.245049125     A.U. after   12 cycles
 SCF Done:  E(RmPW+HF-PW91) =  -258.245087403     A.U. after    9 cycles
 SCF Done:  E(RmPW+HF-PW91) =  -258.245095335     A.U. after    9 cycles
 SCF Done:  E(RmPW+HF-PW91) =  -258.245097274     A.U. after    8 cycles
 Optimization completed.
    -- Stationary point found.
 Normal termination of Gaussian 98.

 ------------------------------------------------------
 #N Geom=AllCheck Guess=TCheck RmPW1PW91/6-311G(d) Freq
 ------------------------------------------------------

 1H tetrazole c CH-NH-N=N-N= casno=288948
 ----------------------------------------
 Redundant internal coordinates taken from checkpointfile:
 /wrk/rdj3/Gau-15056.chk
 Charge =  0 Multiplicity = 1

                         Standard orientation:
 ---------------------------------------------------------------------
 Center     Atomic     Atomic              Coordinates (Angstroms)
 Number     Number      Type              X           Y           Z
 ---------------------------------------------------------------------
    1          7             0       -0.719298   -0.917790    0.000000
    2          7             0       -1.111180    0.301258    0.000000
    3          7             0        0.000000    1.048141    0.000000
    4          1             0       -0.061382    2.051242    0.000000
    5          7             0        0.630614   -1.002276    0.000000
    6          6             0        1.061892    0.231434    0.000000
    7          1             0        2.089084    0.554817    0.000000
 ---------------------------------------------------------------------

 SCF Done:  E(RmPW+HF-PW91) =  -258.245097274     A.U. after    1 cycles

  The electronic state is 1-A'.
 Alpha  occ. eigenvalues --  -14.50943 -14.47174 -14.45348 -14.42476 -10.32753
 Alpha  occ. eigenvalues --   -1.19145  -0.98599  -0.93112  -0.71081  -0.69572
 Alpha  occ. eigenvalues --   -0.62535  -0.52553  -0.52348  -0.40280  -0.35312
 Alpha  occ. eigenvalues --   -0.32982  -0.32406  -0.30911
 Alpha virt. eigenvalues --   -0.01785   0.01982   0.02767   0.07185   0.17908
 Alpha virt. eigenvalues --    0.19345   0.22709   0.28607   0.33498   0.39882
 Alpha virt. eigenvalues --    0.41701   0.44152   0.50518   0.56236   0.56997

  Exact polarizability:  38.085   0.931  37.624  -0.007  -0.008  17.446
 Approx polarizability:  62.537   0.420  66.017   0.000   0.000  25.330

                     1                      2                      3
                    A"                     A"                     A"
 Frequencies --   619.2139               708.4466               754.5961
 Red. masses --     1.9684                 1.7907                 7.5065
 Frc consts  --     0.4447                 0.5295                 2.5183
 IR Inten    --    88.3760                15.2117                10.2090
 Raman Activ --     0.0000                 0.0000                 0.0000

                     4                      5                      6
                    A"                     A'                     A'
 Frequencies --   863.5736               994.8201              1032.2574
 Red. masses --     1.3731                 4.2852                 6.2104
 Frc consts  --     0.6033                 2.4987                 3.8990
 IR Inten    --    19.3059                 4.4000                 0.8566
 Raman Activ --     0.0000                 0.0000                 0.0000

                     7                      8                      9
                    A'                     A'                     A'
 Frequencies --  1086.4070              1101.5556              1165.4239
 Red. masses --     4.0997                 3.6559                 2.0320
 Frc consts  --     2.8510                 2.6137                 1.6261
 IR Inten    --    18.9297                30.2122                13.3580
 Raman Activ --     0.0000                 0.0000                 0.0000

                    10                     11                     12
                    A'                     A'                     A'
 Frequencies --  1295.0296              1338.1509              1494.7197
 Red. masses --     2.5360                 9.7765                 3.4571
 Frc consts  --     2.5058                10.3145                 4.5507
 IR Inten    --     1.2215                18.2543                 9.1365
 Raman Activ --     0.0000                 0.0000                 0.0000

                    13                     14                     15
                    A'                     A'                     A'
 Frequencies --  1548.0694              3312.8622              3714.1146
 Red. masses --     3.0856                 1.1017                 1.0837
 Frc consts  --     4.3568                 7.1236                 8.8079
 IR Inten    --    18.2979                 0.6186                79.1404
 Raman Activ --     0.0000                 0.0000                 0.0000

 - Thermochemistry -
 -------------------
 Temperature   298.150 Kelvin.  Pressure   1.00000 Atm.
 Atom  1 has atomic number  7 and mass  14.00307

 Molecular mass:    70.02795 amu.
 Principal axes and moments of inertia in atomic units:
                           1         2         3
     EIGENVALUES --   169.18757 172.18457 341.37214
           X            0.84683   0.53186   0.00000
           Y           -0.53186   0.84683   0.00000
           Z            0.00000   0.00000   1.00000
 THIS MOLECULE IS AN ASYMMETRIC TOP.
 ROTATIONAL SYMMETRY NUMBER  1.
 ROTATIONAL TEMPERATURES (KELVIN)      0.51194     0.50303     0.25372
 ROTATIONAL CONSTANTS (GHZ)           10.66710    10.48143     5.28673
 Zero-point vibrational energy     125782.8 (Joules/Mol)
                                   30.06281 (Kcal/Mol)
 WARNING-- EXPLICIT CONSIDERATION OF   1 DEGREES OF FREEDOM AS
           VIBRATIONS MAY CAUSE SIGNIFICANT ERROR
 VIBRATIONAL TEMPERATURES:    890.91  1019.29  1085.69  1242.48  1431.32
          (KELVIN)           1485.18  1563.09  1584.88  1676.78  1863.25
                             1925.29  2150.56  2227.31  4766.44  5343.75

 Zero-point correction=                           0.047908 (Hartree/Particle)
 Thermal correction to Energy=                    0.051325
 Thermal correction to Enthalpy=                  0.052269
 Thermal correction to Gibbs Free Energy=         0.021852
 Sum of electronic and zero-point Energies=           -258.197189
 Sum of electronic and thermal Energies=              -258.193773
 Sum of electronic and thermal Enthalpies=            -258.192828
 Sum of electronic and thermal Free Energies=         -258.223245

                     E (Thermal)             CV                S
                      KCAL/MOL        CAL/MOL-KELVIN    CAL/MOL-KELVIN
 TOTAL                   32.207             10.992             64.018
 ELECTRONIC               0.000              0.000              0.000
 TRANSLATIONAL            0.889              2.981             38.656
 ROTATIONAL               0.889              2.981             23.813
 VIBRATIONAL             30.429              5.030              1.549
 VIBRATION  1             0.979              0.991              0.418
                       Q            LOG10(Q)             LN(Q)
 TOTAL BOT       0.888912D-10        -10.051141        -23.143607
 TOTAL V=0       0.965884D+12         11.984925         27.596309
 VIB (BOT)       0.108105D-21        -21.966153        -50.578937
 VIB (BOT)  1    0.236369D+00         -0.626409         -1.442360
 VIB (V=0)       0.117466D+01          0.069913          0.160980
 VIB (V=0)  1    0.105306D+01          0.022451          0.051696
 ELECTRONIC      0.100000D+01          0.000000          0.000000
 TRANSLATIONAL   0.230339D+08          7.362368         16.952478
 ROTATIONAL      0.356981D+05          4.552645         10.482852
 ***** Axes restored to original set *****
 -------------------------------------------------------------------
 Center     Atomic                   Forces (Hartrees/Bohr)
 Number     Number              X              Y              Z
 -------------------------------------------------------------------
    1          7           0.000523476   -0.000033118    0.000000000
    2          7           0.000042503   -0.000071401    0.000000000
    3          7          -0.000376889    0.000079599    0.000000000
    4          1           0.000007081   -0.000004010    0.000000000
    5          7          -0.000358525    0.000208627    0.000000000
    6          6           0.000173946   -0.000142392    0.000000000
    7          1          -0.000011592   -0.000037305    0.000000000
 -------------------------------------------------------------------
 Cartesian Forces:  Max     0.000523476 RMS     0.000176554

 GradGradGradGradGradGradGradGradGradGradGradGradGradGradGradGradGradGrad
 Berny optimization.
 Internal  Forces:  Max     0.000354137 RMS     0.000112411
 Search for a local minimum.
 Step number   1 out of a maximum of  36
 All quantities printed in internal units (Hartrees-Bohrs-Radians)
 Second derivative matrix not updated -- analytic derivatives used.
     Eigenvalues ---    0.00918   0.02567   0.07422   0.08011   0.10334
     Eigenvalues ---    0.10952   0.21043   0.26139   0.36334   0.38340
     Eigenvalues ---    0.45368   0.48611   0.49626   0.59846   0.65417
     Eigenvalues --- 1000.000001000.000001000.000001000.000001000.00000
     Eigenvalues --- 1000.000001000.000001000.000001000.000001000.00000
     Eigenvalues --- 1000.00000
 Angle between quadratic step and forces=  26.90 degrees.
 Linear search not attempted -- first point.
 Iteration  1 RMS(Cart)=  0.00026340 RMS(Int)=  0.00000005
 Iteration  2 RMS(Cart)=  0.00000005 RMS(Int)=  0.00000000
 Variable       Old X    -DE/DX   Delta X   Delta X   Delta X     New X
                                 (Linear)    (Quad)   (Total)
    R1        2.41977  -0.00018   0.00000  -0.00009  -0.00009   2.41969
    R2        2.55595  -0.00035   0.00000  -0.00125  -0.00125   2.55471
    R3        2.53009  -0.00023   0.00000  -0.00058  -0.00058   2.52950
    R4        1.89913   0.00000   0.00000   0.00001   0.00001   1.89914
    R5        2.53155   0.00016   0.00000   0.00034   0.00034   2.53188
    R6        2.46972  -0.00001   0.00000   0.00025   0.00025   2.46997
    R7        2.03503   0.00000   0.00000  -0.00002  -0.00002   2.03501
    A1        1.94433   0.00023   0.00000   0.00041   0.00041   1.94474
    A2        1.85156  -0.00010   0.00000  -0.00027  -0.00027   1.85129
    A3        2.10147  -0.00002   0.00000   0.00000   0.00000   2.10147
    A4        1.89418   0.00004   0.00000   0.00025   0.00025   1.89443
    A5        2.28753  -0.00002   0.00000  -0.00025  -0.00025   2.28728
    A6        1.84459  -0.00004   0.00000   0.00019   0.00019   1.84478
    A7        1.89011  -0.00013   0.00000  -0.00058  -0.00058   1.88954
    A8        2.18098   0.00010   0.00000   0.00051   0.00051   2.18148
    A9        2.21209   0.00003   0.00000   0.00007   0.00007   2.21216
    D1        0.00000   0.00000   0.00000   0.00000   0.00000   0.00000
    D2        0.00000   0.00000   0.00000   0.00000   0.00000   0.00000
    D3        3.14159   0.00000   0.00000   0.00000   0.00000   3.14159
    D4        0.00000   0.00000   0.00000   0.00000   0.00000   0.00000
    D5        0.00000   0.00000   0.00000   0.00000   0.00000   0.00000
    D6        3.14159   0.00000   0.00000   0.00000   0.00000   3.14159
    D7        3.14159   0.00000   0.00000   0.00000   0.00000   3.14159
    D8        0.00000   0.00000   0.00000   0.00000   0.00000   0.00000
    D9        0.00000   0.00000   0.00000   0.00000   0.00000   0.00000
   D10        3.14159   0.00000   0.00000   0.00000   0.00000   3.14159
         Item               Value     Threshold  Converged?
 Maximum Force            0.000354     0.000450     YES
 RMS     Force            0.000112     0.000300     YES
 Maximum Displacement     0.000789     0.001800     YES
 RMS     Displacement     0.000263     0.001200     YES
 Predicted change in Energy=-4.480656D-07
 Optimization completed.
    -- Stationary point found.
                         ----------------------------
                         !   Optimized Parameters   !
                         ! (Angstroms and Degrees)  !
 ------------------------                            -------------------------
 ! Name  Definition              Value          Derivative Info.             !
 -----------------------------------------------------------------------------
 ! R1    R(1,2)                  1.2805         -DE/DX =   -0.0002           !
 ! R2    R(1,5)                  1.3526         -DE/DX =   -0.0004           !
 ! R3    R(2,3)                  1.3389         -DE/DX =   -0.0002           !
 ! R4    R(3,4)                  1.005          -DE/DX =    0.               !
 ! R5    R(3,6)                  1.3396         -DE/DX =    0.0002           !
 ! R6    R(5,6)                  1.3069         -DE/DX =    0.               !
 ! R7    R(6,7)                  1.0769         -DE/DX =    0.               !
 ! A1    A(2,1,5)              111.4021         -DE/DX =    0.0002           !
 ! A2    A(1,2,3)              106.0863         -DE/DX =   -0.0001           !
 ! A3    A(2,3,4)              120.4054         -DE/DX =    0.               !
 ! A4    A(2,3,6)              108.5288         -DE/DX =    0.               !
 ! A5    A(4,3,6)              131.0658         -DE/DX =    0.               !
 ! A6    A(1,5,6)              105.6873         -DE/DX =    0.               !
 ! A7    A(3,6,5)              108.2955         -DE/DX =   -0.0001           !
 ! A8    A(3,6,7)              124.9608         -DE/DX =    0.0001           !
 ! A9    A(5,6,7)              126.7437         -DE/DX =    0.               !
 ! D1    D(5,1,2,3)              0.             -DE/DX =    0.               !
 ! D2    D(2,1,5,6)              0.             -DE/DX =    0.               !
 ! D3    D(1,2,3,4)            180.             -DE/DX =    0.               !
 ! D4    D(1,2,3,6)              0.             -DE/DX =    0.               !
 ! D5    D(2,3,6,5)              0.             -DE/DX =    0.               !
 ! D6    D(2,3,6,7)            180.             -DE/DX =    0.               !
 ! D7    D(4,3,6,5)            180.             -DE/DX =    0.               !
 ! D8    D(4,3,6,7)              0.             -DE/DX =    0.               !
 ! D9    D(1,5,6,3)              0.             -DE/DX =    0.               !
 ! D10   D(1,5,6,7)            180.             -DE/DX =    0.               !
 -----------------------------------------------------------------------------
 GradGradGradGradGradGradGradGradGradGradGradGradGradGradGradGradGradGrad

 1\1\GINC-FERRUM\Freq\RmPW1PW91\6-311G(d)\C1H2N4\RDJ3\11-Jan-2001\0\\#N
  GEOM=ALLCHECK GUESS=TCHECK RMPW1PW91/6-311G(D) FREQ\\1H tetrazole c C
 H-NH-N=N-N= casno=288948\\0,1\N,-1.1358985214,-0.2635581629,0.\N,-0.67
 63992611,0.9316449545,0.\N,0.6574849416,0.8162805772,0.\H,1.2389121933
 ,1.6359877974,0.\N,-0.1375995242,-1.1761364881,0.\C,0.9721651197,-0.48
 58724482,0.\H,1.9749836436,-0.8783692735,0.\\Version=IBM-RS6000-G98Rev
 A.6\State=1-A'\HF=-258.2450973\RMSD=4.479e-09\RMSF=1.766e-04\Dipole=1.
 9674319,0.8591186,0.\DipoleDeriv=-0.0560564,-0.1596391,-0.0004136,-0.2
 085912,0.0944454,-0.0001779,-0.0001981,-0.000313,-0.1573678,0.2494055,
 0.270697,-0.0000182,0.2361436,-0.3284574,0.0003983,0.0000116,0.0001971
 ,-0.0954296,-0.3348637,-0.2903721,0.0001794,-0.1952343,-0.208667,-0.00
 00296,-0.0001619,-0.0000942,-0.1589798,0.2179793,0.0328188,0.0000546,0
 .0159274,0.2470114,0.000015,0.0000784,-0.0000289,0.35563,-0.3522849,0.
 1260953,0.0001311,-0.0045292,-0.3532477,-0.000236,0.0003984,0.0004443,
 -0.20973,0.2316449,0.0086853,0.0000316,0.1380554,0.4299785,0.0000537,-
 0.0000833,-0.0002356,0.0913472,0.0441765,0.0117147,0.000035,0.0182285,
 0.1189375,-0.0000235,-0.0000452,0.0000304,0.1745301\Polar=38.8132188,-
 0.0268599,36.8960414,-0.0105868,-0.0015467,17.4462976\PG=CS [SG(C1H2N4
 )]\NImag=0\\0.57570135,0.09646480,0.51022514,0.00001372,-0.00001144,0.
 12966463,-0.14578827,-0.11697586,-0.00001014,0.45514633,-0.05690953,-0
 .34217429,-0.00000202,-0.03033101,0.64163499,-0.00000729,0.00000601,-0
 .10095481,0.00000622,0.00000209,0.11990083,-0.11738041,-0.11406724,0.0
 0000511,-0.23105449,0.02528523,-0.00000299,0.68674271,-0.03315535,-0.0
 6524116,0.00000406,0.06029717,-0.12543418,-0.00000838,0.20360666,0.957
 82463,0.00000755,0.00000424,0.02748629,-0.00000089,-0.00000930,-0.0718
 4954,-0.00000373,0.00000403,0.09908304,-0.01144566,-0.00148718,0.00000
 365,-0.00725186,-0.03413829,-0.00000274,-0.20160523,-0.18186569,0.0000
 0007,0.20499540,0.00786938,0.00172600,0.00000241,0.00214230,0.01277293
 ,-0.00000126,-0.19110488,-0.35038881,0.00000106,0.20182199,0.34653443,
 -0.00000146,-0.00000393,0.00826030,-0.00000135,0.00000370,-0.01223089,
 0.00000307,0.00000029,-0.00918602,0.00000057,-0.00000025,0.01535905,-0
 .17424773,0.06584654,0.00000178,-0.00086628,0.09310482,0.00000051,-0.0
 0410518,-0.11651951,-0.00000244,-0.00045322,-0.00088131,0.00000100,0.5
 0824560,0.02814325,-0.13553679,0.00002127,-0.01774863,-0.12792084,-0.0
 0001033,0.00216338,-0.08455827,0.00000397,0.00912882,-0.00630130,0.000
 00192,0.10626015,0.55023511,-0.00002697,0.00000648,-0.09355825,0.00000
 880,0.00001595,0.03685386,-0.00000330,-0.00000417,0.02158126,0.0000004
 6,0.00000082,0.00791495,0.00000179,-0.00003386,0.11379359,-0.12359629,
 0.07068023,-0.00001123,-0.07001893,0.00661695,0.00001010,-0.13795937,0
 .07101132,-0.00000395,0.01621164,-0.02046448,-0.00000199,-0.31346401,-
 0.13857842,0.00002069,0.95463854,-0.03602743,0.03222682,-0.00001532,0.
 10326206,-0.05244544,0.00001016,0.04217473,-0.32787410,-0.00000259,0.0
 0671156,-0.00402317,-0.00000147,-0.13123269,-0.21076566,0.00001381,-0.
 09491844,0.66212214,0.00001862,-0.00000274,0.01985310,-0.00000211,-0.0
 0001249,0.02199013,0.00000294,0.00000651,-0.06442940,-0.00000358,-0.00
 000539,-0.00919345,-0.00000439,0.00002086,-0.08128422,-0.00001768,-0.0
 0000436,0.14298055,-0.00324299,-0.00046128,-0.00000289,-0.00016650,-0.
 00362817,-0.00000380,0.00536196,-0.00337462,0.00000339,-0.00045107,0.0
 0061699,0.00000016,-0.01510919,0.01063144,-0.00000149,-0.32581158,0.11
 003021,0.00000621,0.33941938,-0.00638514,-0.00122574,0.00000104,-0.000
 64602,-0.00643318,0.00000172,0.03194211,-0.00432810,-0.00000141,-0.000
 17122,-0.00032008,-0.00000025,-0.01657802,0.01484775,0.00000097,0.1056
 5285,-0.09924059,-0.00000239,-0.11381456,0.09669994,-0.00000418,0.0000
 0138,0.00924874,-0.00000053,0.00000208,0.00629043,-0.00000110,-0.00000
 233,-0.00268563,0.00000157,0.00000261,-0.00092395,0.00000176,-0.000003
 83,-0.00530119,0.00000406,-0.00000024,-0.02991669,-0.00000158,0.000000
 33,0.02328830\\-0.00052348,0.00003312,0.,-0.00004250,0.00007140,0.,0.0
 0037689,-0.00007960,0.,-0.00000708,0.00000401,0.,0.00035853,-0.0002086
 3,0.,-0.00017395,0.00014239,0.,0.00001159,0.00003731,0.\\\@

 A people that values its privileges above its principles soon loses both.
 -- Dwight D. Eisenhower
 Job cpu time:  0 days  0 hours  9 minutes 37.9 seconds.
 File lengths (MBytes):  RWF=   14 Int=    0 D2E=    0 Chk=    3 Scr=    1
 Normal termination of Gaussian 98.
