 Gaussian 98, Revision A.6,
 Gaussian 98:  IBM-RS6000-G98RevA.6 19-Oct-1998

 --------------------------
 #MPW1PW91/cc-pVDZ opt freq
 --------------------------

 ----------------------------------------
 1H tetrazole c CH-NH-N=N-N= casno=288948
 ----------------------------------------
 Symbolic Z-matrix:
 Charge =  0 Multiplicity = 1

 SCF Done:  E(RmPW+HF-PW91) =  -258.209035503     A.U. after   15 cycles
 SCF Done:  E(RmPW+HF-PW91) =  -258.211734551     A.U. after   12 cycles
 SCF Done:  E(RmPW+HF-PW91) =  -258.211784785     A.U. after   10 cycles
 SCF Done:  E(RmPW+HF-PW91) =  -258.211799817     A.U. after    9 cycles
 SCF Done:  E(RmPW+HF-PW91) =  -258.211802247     A.U. after    9 cycles
 Optimization completed.
    -- Stationary point found.
 Normal termination of Gaussian 98.

 ----------------------------------------------------
 #N Geom=AllCheck Guess=TCheck RmPW1PW91/CC-pVDZ Freq
 ----------------------------------------------------

 1H tetrazole c CH-NH-N=N-N= casno=288948
 ----------------------------------------
 Redundant internal coordinates taken from checkpointfile:
 /wrk/rdj3/Gau-17444.chk
 Charge =  0 Multiplicity = 1

                         Standard orientation:
 ---------------------------------------------------------------------
 Center     Atomic     Atomic              Coordinates (Angstroms)
 Number     Number      Type              X           Y           Z
 ---------------------------------------------------------------------
    1          7             0       -0.720573   -0.918646    0.000000
    2          7             0       -1.112380    0.304492    0.000000
    3          7             0        0.000000    1.049856    0.000000
    4          1             0       -0.055901    2.059788    0.000000
    5          7             0        0.629281   -1.007358    0.000000
    6          6             0        1.063918    0.230756    0.000000
    7          1             0        2.098099    0.557272    0.000000
 ---------------------------------------------------------------------

 SCF Done:  E(RmPW+HF-PW91) =  -258.211802247     A.U. after    1 cycles

  The electronic state is 1-A'.
 Alpha  occ. eigenvalues --  -14.52158 -14.48154 -14.46354 -14.43680 -10.33801
 Alpha  occ. eigenvalues --   -1.18439  -0.98045  -0.92450  -0.70330  -0.68955
 Alpha  occ. eigenvalues --   -0.61654  -0.51952  -0.51578  -0.39644  -0.34776
 Alpha  occ. eigenvalues --   -0.32359  -0.31859  -0.30350
 Alpha virt. eigenvalues --   -0.01320   0.02485   0.04382   0.08885   0.19271
 Alpha virt. eigenvalues --    0.20364   0.27290   0.30474   0.39586   0.45196
 Alpha virt. eigenvalues --    0.47296   0.55021   0.58058   0.59508   0.66911

  Exact polarizability:  37.624   1.134  36.400   0.024   0.018  16.095
 Approx polarizability:  62.681   0.561  65.777   0.000   0.000  23.960

                     1                      2                      3
                    A"                     A"                     A"
 Frequencies --   601.2487               701.6956               754.7736
 Red. masses --     1.7443                 1.9881                 7.8415
 Frc consts  --     0.3715                 0.5768                 2.6320
 IR Inten    --    77.5780                 7.3111                 8.6583
 Raman Activ --     0.0000                 0.0000                 0.0000

                     4                      5                      6
                    A"                     A'                     A'
 Frequencies --   866.2845               991.0179              1026.7384
 Red. masses --     1.3825                 3.6779                 5.2423
 Frc consts  --     0.6113                 2.1282                 3.2561
 IR Inten    --    17.1855                 3.3155                 2.0135
 Raman Activ --     0.0000                 0.0000                 0.0000

                     7                      8                      9
                    A'                     A'                     A'
 Frequencies --  1089.7066              1104.6856              1158.2242
 Red. masses --     2.6915                 4.2854                 2.2600
 Frc consts  --     1.8831                 3.0812                 1.7863
 IR Inten    --    32.3609                18.4930                11.7959
 Raman Activ --     0.0000                 0.0000                 0.0000

                    10                     11                     12
                    A'                     A'                     A'
 Frequencies --  1285.2712              1343.4989              1488.6706
 Red. masses --     2.6678                10.0417                 3.4876
 Frc consts  --     2.5965                10.6790                 4.5538
 IR Inten    --     1.3593                16.1838                 8.2184
 Raman Activ --     0.0000                 0.0000                 0.0000

                    13                     14                     15
                    A'                     A'                     A'
 Frequencies --  1534.9699              3318.9804              3675.9791
 Red. masses --     4.1039                 1.1020                 1.0849
 Frc consts  --     5.6970                 7.1524                 8.6372
 IR Inten    --    14.4629                 1.9252                99.8840
 Raman Activ --     0.0000                 0.0000                 0.0000

 - Thermochemistry -
 -------------------
 Temperature   298.150 Kelvin.  Pressure   1.00000 Atm.
 Atom  1 has atomic number  7 and mass  14.00307

 Molecular mass:    70.02795 amu.
 Principal axes and moments of inertia in atomic units:
                           1         2         3
     EIGENVALUES --   169.86871 172.94693 342.81564
           X            0.79067   0.61225   0.00000
           Y           -0.61225   0.79067   0.00000
           Z            0.00000   0.00000   1.00000
 THIS MOLECULE IS AN ASYMMETRIC TOP.
 ROTATIONAL SYMMETRY NUMBER  1.
 ROTATIONAL TEMPERATURES (KELVIN)      0.50988     0.50081     0.25265
 ROTATIONAL CONSTANTS (GHZ)           10.62433    10.43523     5.26447
 Zero-point vibrational energy     125259.5 (Joules/Mol)
                                   29.93773 (Kcal/Mol)
 WARNING-- EXPLICIT CONSIDERATION OF   1 DEGREES OF FREEDOM AS
           VIBRATIONS MAY CAUSE SIGNIFICANT ERROR
 VIBRATIONAL TEMPERATURES:    865.06  1009.58  1085.94  1246.38  1425.85
          (KELVIN)           1477.24  1567.84  1589.39  1666.42  1849.21
                             1932.98  2141.85  2208.47  4775.25  5288.88

 Zero-point correction=                           0.047709 (Hartree/Particle)
 Thermal correction to Energy=                    0.051139
 Thermal correction to Enthalpy=                  0.052083
 Thermal correction to Gibbs Free Energy=         0.021641
 Sum of electronic and zero-point Energies=           -258.164093
 Sum of electronic and thermal Energies=              -258.160664
 Sum of electronic and thermal Enthalpies=            -258.159719
 Sum of electronic and thermal Free Energies=         -258.190161

                     E (Thermal)             CV                S
                      KCAL/MOL        CAL/MOL-KELVIN    CAL/MOL-KELVIN
 TOTAL                   32.090             11.055             64.071
 ELECTRONIC               0.000              0.000              0.000
 TRANSLATIONAL            0.889              2.981             38.656
 ROTATIONAL               0.889              2.981             23.825
 VIBRATIONAL             30.313              5.093              1.589
 VIBRATION  1             0.959              1.029              0.448
                       Q            LOG10(Q)             LN(Q)
 TOTAL BOT       0.111162D-09         -9.954045        -22.920035
 TOTAL V=0       0.977995D+12         11.990337         27.608771
 VIB (BOT)       0.134337D-21        -21.871805        -50.361692
 VIB (BOT)  1    0.248032D+00         -0.605492         -1.394196
 VIB (V=0)       0.118189D+01          0.072576          0.167113
 VIB (V=0)  1    0.105814D+01          0.024543          0.056512
 ELECTRONIC      0.100000D+01          0.000000          0.000000
 TRANSLATIONAL   0.230339D+08          7.362368         16.952478
 ROTATIONAL      0.359247D+05          4.555393         10.489180
 ***** Axes restored to original set *****
 -------------------------------------------------------------------
 Center     Atomic                   Forces (Hartrees/Bohr)
 Number     Number              X              Y              Z
 -------------------------------------------------------------------
    1          7           0.000281465   -0.000110439    0.000000000
    2          7           0.000141123   -0.000225186    0.000000000
    3          7          -0.000248720    0.000185200    0.000000000
    4          1           0.000014699   -0.000004534    0.000000000
    5          7          -0.000371679    0.000318525    0.000000000
    6          6           0.000179805   -0.000124274    0.000000000
    7          1           0.000003307   -0.000039292    0.000000000
 -------------------------------------------------------------------
 Cartesian Forces:  Max     0.000371679 RMS     0.000161448

 GradGradGradGradGradGradGradGradGradGradGradGradGradGradGradGradGradGrad
 Berny optimization.
 Internal  Forces:  Max     0.000364836 RMS     0.000098212
 Search for a local minimum.
 Step number   1 out of a maximum of  36
 All quantities printed in internal units (Hartrees-Bohrs-Radians)
 Second derivative matrix not updated -- analytic derivatives used.
     Eigenvalues ---    0.00878   0.02579   0.07444   0.08040   0.10012
     Eigenvalues ---    0.10411   0.21312   0.26838   0.36679   0.38487
     Eigenvalues ---    0.45566   0.47797   0.49845   0.60132   0.65493
     Eigenvalues --- 1000.000001000.000001000.000001000.000001000.00000
     Eigenvalues --- 1000.000001000.000001000.000001000.000001000.00000
     Eigenvalues --- 1000.00000
 Angle between quadratic step and forces=  21.88 degrees.
 Linear search not attempted -- first point.
 Iteration  1 RMS(Cart)=  0.00027360 RMS(Int)=  0.00000005
 Iteration  2 RMS(Cart)=  0.00000005 RMS(Int)=  0.00000001
 Variable       Old X    -DE/DX   Delta X   Delta X   Delta X     New X
                                 (Linear)    (Quad)   (Total)
    R1        2.42709  -0.00014   0.00000  -0.00006  -0.00006   2.42703
    R2        2.55636  -0.00036   0.00000  -0.00120  -0.00120   2.55515
    R3        2.53037  -0.00017   0.00000  -0.00053  -0.00053   2.52983
    R4        1.91141   0.00000   0.00000   0.00001   0.00001   1.91142
    R5        2.53734   0.00012   0.00000   0.00036   0.00036   2.53770
    R6        2.47968   0.00007   0.00000   0.00025   0.00025   2.47993
    R7        2.04941   0.00002   0.00000   0.00002   0.00002   2.04943
    A1        1.94642   0.00003   0.00000   0.00002   0.00002   1.94644
    A2        1.85114   0.00009   0.00000   0.00011   0.00011   1.85125
    A3        2.10585   0.00004   0.00000   0.00003   0.00003   2.10588
    A4        1.89513  -0.00006   0.00000   0.00002   0.00002   1.89515
    A5        2.28220   0.00003   0.00000  -0.00005  -0.00005   2.28215
    A6        1.84278   0.00008   0.00000   0.00042   0.00042   1.84320
    A7        1.88930  -0.00013   0.00000  -0.00057  -0.00057   1.88873
    A8        2.17966   0.00009   0.00000   0.00053   0.00053   2.18019
    A9        2.21422   0.00004   0.00000   0.00004   0.00004   2.21426
    D1        0.00000   0.00000   0.00000   0.00000   0.00000   0.00000
    D2        0.00000   0.00000   0.00000   0.00000   0.00000   0.00000
    D3        3.14159   0.00000   0.00000   0.00000   0.00000   3.14159
    D4        0.00000   0.00000   0.00000   0.00000   0.00000   0.00000
    D5        0.00000   0.00000   0.00000   0.00000   0.00000   0.00000
    D6        3.14159   0.00000   0.00000   0.00000   0.00000   3.14159
    D7        3.14159   0.00000   0.00000   0.00000   0.00000   3.14159
    D8        0.00000   0.00000   0.00000   0.00000   0.00000   0.00000
    D9        0.00000   0.00000   0.00000   0.00000   0.00000   0.00000
   D10        3.14159   0.00000   0.00000   0.00000   0.00000   3.14159
         Item               Value     Threshold  Converged?
 Maximum Force            0.000365     0.000450     YES
 RMS     Force            0.000098     0.000300     YES
 Maximum Displacement     0.000699     0.001800     YES
 RMS     Displacement     0.000274     0.001200     YES
 Predicted change in Energy=-3.839937D-07
 Optimization completed.
    -- Stationary point found.
                         ----------------------------
                         !   Optimized Parameters   !
                         ! (Angstroms and Degrees)  !
 ------------------------                            -------------------------
 ! Name  Definition              Value          Derivative Info.             !
 -----------------------------------------------------------------------------
 ! R1    R(1,2)                  1.2844         -DE/DX =   -0.0001           !
 ! R2    R(1,5)                  1.3528         -DE/DX =   -0.0004           !
 ! R3    R(2,3)                  1.339          -DE/DX =   -0.0002           !
 ! R4    R(3,4)                  1.0115         -DE/DX =    0.               !
 ! R5    R(3,6)                  1.3427         -DE/DX =    0.0001           !
 ! R6    R(5,6)                  1.3122         -DE/DX =    0.0001           !
 ! R7    R(6,7)                  1.0845         -DE/DX =    0.               !
 ! A1    A(2,1,5)              111.5219         -DE/DX =    0.               !
 ! A2    A(1,2,3)              106.0628         -DE/DX =    0.0001           !
 ! A3    A(2,3,4)              120.6564         -DE/DX =    0.               !
 ! A4    A(2,3,6)              108.5831         -DE/DX =   -0.0001           !
 ! A5    A(4,3,6)              130.7605         -DE/DX =    0.               !
 ! A6    A(1,5,6)              105.5834         -DE/DX =    0.0001           !
 ! A7    A(3,6,5)              108.2488         -DE/DX =   -0.0001           !
 ! A8    A(3,6,7)              124.8855         -DE/DX =    0.0001           !
 ! A9    A(5,6,7)              126.8656         -DE/DX =    0.               !
 ! D1    D(5,1,2,3)              0.             -DE/DX =    0.               !
 ! D2    D(2,1,5,6)              0.             -DE/DX =    0.               !
 ! D3    D(1,2,3,4)            180.             -DE/DX =    0.               !
 ! D4    D(1,2,3,6)              0.             -DE/DX =    0.               !
 ! D5    D(2,3,6,5)              0.             -DE/DX =    0.               !
 ! D6    D(2,3,6,7)            180.             -DE/DX =    0.               !
 ! D7    D(4,3,6,5)            180.             -DE/DX =    0.               !
 ! D8    D(4,3,6,7)              0.             -DE/DX =    0.               !
 ! D9    D(1,5,6,3)              0.             -DE/DX =    0.               !
 ! D10   D(1,5,6,7)            180.             -DE/DX =    0.               !
 -----------------------------------------------------------------------------
 GradGradGradGradGradGradGradGradGradGradGradGradGradGradGradGradGradGrad

 1\1\GINC-INDIUM\Freq\RmPW1PW91\CC-pVDZ\C1H2N4\RDJ3\04-Jan-2001\0\\#N G
 EOM=ALLCHECK GUESS=TCHECK RMPW1PW91/CC-PVDZ FREQ\\1H tetrazole c CH-NH
 -N=N-N= casno=288948\\0,1\N,-1.1370607553,-0.2650074967,0.\N,-0.676605
 143,0.9339753907,0.\N,0.657422837,0.8185314711,0.\H,1.2462605595,1.640
 9400156,0.\N,-0.1401851976,-1.1794547161,0.\C,0.9739946247,-0.48631670
 2,0.\H,1.9847695048,-0.8793523469,0.\\Version=IBM-RS6000-G98RevA.6\Sta
 te=1-A'\HF=-258.2118022\RMSD=1.705e-09\RMSF=1.614e-04\Dipole=1.8999437
 ,0.8386694,0.\DipoleDeriv=-0.0658428,-0.1552783,-0.000687,-0.1919665,0
 .0759473,0.0006184,-0.0004671,-0.0001575,-0.1497652,0.2441847,0.293116
 ,0.0013368,0.214682,-0.3305624,0.0003808,0.0006638,0.0000962,-0.100769
 7,-0.3325159,-0.2995788,-0.0017316,-0.2230798,-0.22008,0.0004919,0.000
 0213,-0.0000935,-0.1143601,0.2193236,0.0531972,-0.0000596,0.0338949,0.
 2704038,-0.0002428,-0.0000764,-0.0000712,0.32444,-0.3303411,0.1097526,
 -0.0003698,0.0123121,-0.3432865,-0.0009275,-0.0000843,0.0003559,-0.206
 9163,0.2041834,-0.0061811,0.0011882,0.1466601,0.4257056,-0.0001472,-0.
 0001175,-0.0003847,0.0803574,0.0610086,0.0049723,0.000323,0.0074974,0.
 1218723,-0.0001738,0.0000601,0.0002549,0.1670141\Polar=38.251568,-0.35
 25063,35.7721431,0.0300158,-0.0016607,16.0952054\PG=CS [SG(C1H2N4)]\NI
 mag=0\\0.57888696,0.09228806,0.52039330,-0.00002186,0.00002587,0.12978
 220,-0.14513846,-0.11963226,-0.00000979,0.46511675,-0.05900360,-0.3467
 0480,0.00000971,-0.02897179,0.64279400,0.00000335,-0.00000740,-0.10106
 948,-0.00002106,-0.00000060,0.11996556,-0.11650286,-0.11404217,0.00000
 293,-0.24317389,0.02566481,0.00003352,0.69132207,-0.03232578,-0.065482
 67,-0.00000976,0.06203271,-0.12112412,-0.00001376,0.19753635,0.9532532
 5,0.00000032,-0.00000061,0.02752262,-0.00000678,0.00000004,-0.07160257
 ,0.00000596,-0.00000096,0.09688106,-0.01106362,-0.00116339,0.00000320,
 -0.00526876,-0.03221940,-0.00000087,-0.19790766,-0.18235538,0.00000108
 ,0.20005093,0.00777147,0.00194570,0.00000399,0.00255423,0.01097389,0.0
 0000223,-0.18927069,-0.34150004,0.00000173,0.19985978,0.33613209,0.000
 00671,-0.00000156,0.00832893,-0.00000330,-0.00000512,-0.01239055,0.000
 00003,0.00000146,-0.00775865,0.00000143,0.00000187,0.01441545,-0.17920
 104,0.07223786,-0.00003049,-0.00120185,0.09231628,0.00000361,-0.005723
 99,-0.11489411,-0.00000358,-0.00012433,-0.00080005,0.00000291,0.514779
 35,0.03312489,-0.14007882,-0.00005807,-0.01794138,-0.12770237,0.000000
 26,0.00374491,-0.08300494,-0.00000297,0.00900520,-0.00593498,0.0000119
 2,0.10300015,0.55284206,0.00001508,-0.00001758,-0.09354796,0.00004821,
 -0.00000644,0.03689859,-0.00004894,0.00002554,0.02218569,-0.00000589,-
 0.00001139,0.00741932,0.00003399,0.00005792,0.11334746,-0.12393241,0.0
 7057864,0.00006305,-0.07039645,0.00606895,-0.00001100,-0.13252522,0.07
 426183,0.00000382,0.01463000,-0.02057182,-0.00000754,-0.31475805,-0.14
 241314,-0.00006067,0.95531216,-0.03524320,0.03133660,0.00002788,0.1024
 9281,-0.05191291,0.00001622,0.04498174,-0.33819232,0.00000258,0.007013
 42,-0.00150635,-0.00000927,-0.13567788,-0.21059590,-0.00004304,-0.0941
 5518,0.66845081,0.00000684,-0.00000662,0.01983988,-0.00001215,-0.00000
 282,0.02191203,0.00000601,0.00000214,-0.06479796,0.00000341,0.00000445
 ,-0.00904898,-0.00000126,0.00001183,-0.08130175,-0.00000244,-0.0000096
 8,0.14376002,-0.00304858,-0.00026673,-0.00000704,0.00006266,-0.0038552
 5,-0.00000754,0.00451154,-0.00425562,-0.00000082,-0.00031657,0.0004570
 7,-0.00000024,-0.01377009,0.01147937,0.00001822,-0.32833004,0.11058828
 ,-0.00000041,0.34089109,-0.00661184,-0.00140931,0.00000039,-0.00053432
 ,-0.00632368,0.00000305,0.03138505,-0.00394916,0.00000020,-0.00014023,
 -0.00011030,0.00000069,-0.01618225,0.01447494,-0.00000500,0.10623071,-
 0.09757992,0.00000069,-0.11414712,0.09489743,-0.00001044,0.00000790,0.
 00914381,0.00000487,0.00000524,0.00628642,0.00000049,-0.00000466,-0.00
 243019,-0.00000235,-0.00000288,-0.00096551,-0.00000518,-0.00002090,-0.
 00500135,0.00001479,0.00001531,-0.03036324,-0.00000217,-0.00000002,0.0
 2333007\\-0.00028147,0.00011044,0.,-0.00014112,0.00022519,0.,0.0002487
 2,-0.00018520,0.,-0.00001470,0.00000453,0.,0.00037168,-0.00031852,0.,-
 0.00017981,0.00012427,0.,-0.00000331,0.00003929,0.\\\@

 LAWS OF PROGRAMMING DEFINITION:  A WORKING PROGRAM
                                  IS ONE THAT HAS
                                  ONLY UNOBSERVED
                                  BUGS.
 Job cpu time:  0 days  0 hours  8 minutes 20.6 seconds.
 File lengths (MBytes):  RWF=   14 Int=    0 D2E=    0 Chk=    3 Scr=    1
 Normal termination of Gaussian 98.
