 Gaussian 03, Revision C.02,
 Gaussian 03:  IA32L-G03RevC.02 12-Jun-2004

 ------------------------------
 #MP2=FULL/6-311G(d,p) opt freq
 ------------------------------

 ----------------------------------------------------------
 1H tetrazole c CH-NH-N=N-N= casno=288948 method=2 basis=21
 ----------------------------------------------------------
 Symbolic Z-matrix:
 Charge =  0 Multiplicity = 1

 SCF Done:  E(RHF) =  -256.816032943     A.U. after   15 cycles
 E2 =    -0.9153512314D+00 EUMP2 =    -0.25773138417442D+03
 SCF Done:  E(RHF) =  -256.810667268     A.U. after   13 cycles
 E2 =    -0.9260176061D+00 EUMP2 =    -0.25773668487413D+03
 SCF Done:  E(RHF) =  -256.808609213     A.U. after   11 cycles
 E2 =    -0.9283694330D+00 EUMP2 =    -0.25773697864568D+03
 SCF Done:  E(RHF) =  -256.807916567     A.U. after   11 cycles
 E2 =    -0.9291240734D+00 EUMP2 =    -0.25773704064045D+03
 SCF Done:  E(RHF) =  -256.808015551     A.U. after   10 cycles
 E2 =    -0.9290412791D+00 EUMP2 =    -0.25773705682966D+03
 SCF Done:  E(RHF) =  -256.808167219     A.U. after   10 cycles
 E2 =    -0.9288923224D+00 EUMP2 =    -0.25773705954108D+03
 SCF Done:  E(RHF) =  -256.808202621     A.U. after    8 cycles
 E2 =    -0.9288577788D+00 EUMP2 =    -0.25773706039993D+03
 Optimization completed.
    -- Stationary point found.
 Normal termination of Gaussian 03 at Wed Feb  9 11:41:17 2005.

 ----------------------------------------------------------------------
 #N Geom=AllCheck Guess=Read SCRF=Check GenChk RMP2(Full)/6-311G(d,p) F
 req
 ----------------------------------------------------------------------

 1H tetrazole c CH-NH-N=N-N= casno=288948 method=2 basis=21
 ----------------------------------------------------------
 Redundant internal coordinates taken from checkpoint file:
 /scratch/Gau-12412.chk
 Charge =  0 Multiplicity = 1

                         Standard orientation:
 ---------------------------------------------------------------------
 Center     Atomic     Atomic              Coordinates (Angstroms)
 Number     Number      Type              X           Y           Z
 ---------------------------------------------------------------------
    1          7             0       -0.720880   -0.933520    0.000000
    2          7             0       -1.120829    0.317196    0.000000
    3          7             0        0.000000    1.053292    0.000000
    4          1             0       -0.059253    2.060902    0.000000
    5          7             0        0.633708   -1.013072    0.000000
    6          6             0        1.069791    0.234912    0.000000
    7          1             0        2.096512    0.562357    0.000000
 ---------------------------------------------------------------------

 SCF Done:  E(RHF) =  -256.808202621     A.U. after    1 cycles
 E2 =    -0.9288577852D+00 EUMP2 =    -0.25773706040638D+03

 The electronic state is 1-A'.
 Alpha  occ. eigenvalues --  -15.68564 -15.66195 -15.64530 -15.60474 -11.34035
 Alpha  occ. eigenvalues --   -1.49147  -1.25990  -1.18826  -0.91005  -0.88966
 Alpha  occ. eigenvalues --   -0.79857  -0.67647  -0.67412  -0.56663  -0.48396
 Alpha  occ. eigenvalues --   -0.47037  -0.45625  -0.41312
 Alpha virt. eigenvalues --    0.12652   0.12985   0.16629   0.17948   0.32794
 Alpha virt. eigenvalues --    0.36507   0.37537   0.44894   0.51695   0.56439
 Alpha virt. eigenvalues --    0.61265   0.62621   0.68809   0.74902   0.77068

 Mulliken atomic charges:
              1
     1  N   -0.073828
     2  N   -0.041308
     3  N   -0.320609
     4  H    0.270913
     5  N   -0.293491
     6  C    0.303357
     7  H    0.154966
 Sum of Mulliken charges=   0.00000

 Dipole moment (field-independent basis, Debye):
    X=     2.7505    Y=     5.0226    Z=     0.0000  Tot=     5.7264
 Quadrupole moment (field-independent basis, Debye-Ang):
   XX=   -28.8720   YY=   -26.6614   ZZ=   -28.8483
   XY=     2.0732   XZ=     0.0000   YZ=     0.0000

  Exact polarizability:  38.698   1.353  37.287   0.000   0.000  17.490
 Approx polarizability:  38.707  -0.041  40.753   0.000   0.000  18.610

                     1                      2                      3
                    A"                     A"                     A"
 Frequencies --   618.9252               703.3157               737.9489
 Red. masses --     2.5820                 1.9277                 3.7623
 Frc consts  --     0.5828                 0.5618                 1.2071
 IR Inten    --    58.7218                17.2218                21.5777

                     4                      5                      6
                    A"                     A'                     A'
 Frequencies --   839.1823               971.3438              1013.7431
 Red. masses --     1.3202                 4.2558                 5.9197
 Frc consts  --     0.5478                 2.3658                 3.5843
 IR Inten    --    23.8450                 3.1328                 3.2276

                     7                      8                      9
                    A'                     A'                     A'
 Frequencies --  1098.3419              1117.6248              1156.7054
 Red. masses --     4.3050                 3.2491                 2.2649
 Frc consts  --     3.0598                 2.3911                 1.7855
 IR Inten    --    28.6844                15.4581                11.7853

                    10                     11                     12
                    A'                     A'                     A'
 Frequencies --  1206.6070              1273.0696              1490.8329
 Red. masses --     5.3457                 3.1796                 2.5327
 Frc consts  --     4.5855                 3.0362                 3.3166
 IR Inten    --     3.2585                 1.5770                19.4415

                    13                     14                     15
                    A'                     A'                     A'
 Frequencies --  1492.0340              3335.3968              3689.3051
 Red. masses --     4.2990                 1.1007                 1.0844
 Frc consts  --     5.6386                 7.2148                 8.6962
 IR Inten    --    12.3013                 2.5579               114.9449

 - Thermochemistry -
 -------------------
 Temperature   298.150 Kelvin.  Pressure   1.00000 Atm.
 Atom  1 has atomic number  7 and mass  14.00307

 Molecular mass:    70.02795 amu.
 Principal axes and moments of inertia in atomic units:
                           1         2         3
     EIGENVALUES --   171.77125 175.63468 347.40593
           X           -0.67926   0.73390   0.00000
           Y            0.73390   0.67926   0.00000
           Z            0.00000   0.00000   1.00000
 This molecule is an asymmetric top.
 Rotational symmetry number  1.
 Rotational temperatures (Kelvin)      0.50424     0.49315     0.24932
 Rotational constants (GHZ):          10.50665    10.27554     5.19491
 Zero-point vibrational energy     124078.9 (Joules/Mol)
                                   29.65557 (Kcal/Mol)
 Warning -- explicit consideration of   1 degrees of freedom as
           vibrations may cause significant error
 Vibrational temperatures:    890.49  1011.91  1061.74  1207.39  1397.55
          (Kelvin)           1458.55  1580.27  1608.01  1664.24  1736.04
                             1831.66  2144.97  2146.70  4798.89  5308.08

 Zero-point correction=                           0.047259 (Hartree/Particle)
 Thermal correction to Energy=                    0.050702
 Thermal correction to Enthalpy=                  0.051647
 Thermal correction to Gibbs Free Energy=         0.021171
 Sum of electronic and zero-point Energies=           -257.689801
 Sum of electronic and thermal Energies=              -257.686358
 Sum of electronic and thermal Enthalpies=            -257.685414
 Sum of electronic and thermal Free Energies=         -257.715890

                     E (Thermal)             CV                S
                      KCal/Mol        Cal/Mol-Kelvin    Cal/Mol-Kelvin
 Total                   31.816             11.194             64.142
 Electronic               0.000              0.000              0.000
 Translational            0.889              2.981             38.656
 Rotational               0.889              2.981             23.865
 Vibrational             30.039              5.232              1.621
 Vibration  1             0.979              0.992              0.418

 Optimization completed.
    -- Stationary point found.
 Normal termination of Gaussian 03 at Wed Feb  9 11:56:20 2005.
