 Gaussian 09, Revision B.01,
 Gaussian 09:  EM64L-G09RevB.01 12-Aug-2010

 -------------------------
 #MP2=FULL/STO-3G opt freq
 -------------------------

 -----------------------------------------------------------------
 1htz 1H-Tetrazole casno=288948 state=1 config=1 method=2 basis=20
 -----------------------------------------------------------------
 Symbolic Z-matrix:
 Charge =  0 Multiplicity = 1

 SCF Done:  E(RHF) =  -253.451844218     A.U. after   13 cycles
 E2 =    -0.2860236639D+00 EUMP2 =    -0.25373786788238D+03
 SCF Done:  E(RHF) =  -253.469808367     A.U. after   14 cycles
 E2 =    -0.3226962765D+00 EUMP2 =    -0.25379250464332D+03
 SCF Done:  E(RHF) =  -253.452900620     A.U. after   14 cycles
 E2 =    -0.3468026798D+00 EUMP2 =    -0.25379970329959D+03
 SCF Done:  E(RHF) =  -253.450920446     A.U. after   14 cycles
 E2 =    -0.3490387252D+00 EUMP2 =    -0.25379995917142D+03
 SCF Done:  E(RHF) =  -253.451897425     A.U. after   13 cycles
 E2 =    -0.3483873126D+00 EUMP2 =    -0.25380028473720D+03
 SCF Done:  E(RHF) =  -253.451945954     A.U. after   11 cycles
 E2 =    -0.3483625364D+00 EUMP2 =    -0.25380030849025D+03
 SCF Done:  E(RHF) =  -253.451802897     A.U. after   11 cycles
 E2 =    -0.3485108064D+00 EUMP2 =    -0.25380031370335D+03
 Optimization completed.
    -- Stationary point found.
 Normal termination of Gaussian 09 at Wed Feb  8 11:17:48 2012.

 ---------------------------------------------------------------------
 #N Geom=AllCheck Guess=TCheck SCRF=Check GenChk RMP2-Full/STO-3G Freq
 ---------------------------------------------------------------------

 1htz 1H-Tetrazole casno=288948 state=1 config=1 method=2 basis=20
 -----------------------------------------------------------------
 Redundant internal coordinates taken from checkpoint file:
 /tmp/rdj3/g09-5811/Gau-7359.chk
 Charge =  0 Multiplicity = 1

                         Standard orientation:
 ---------------------------------------------------------------------
 Center     Atomic      Atomic             Coordinates (Angstroms)
 Number     Number       Type             X           Y           Z
 ---------------------------------------------------------------------
      1          7           0       -0.757827   -0.999530    0.000000
      2          7           0       -1.200473    0.333812    0.000000
      3          7           0        0.000000    1.105577    0.000000
      4          1           0       -0.028987    2.152961    0.000000
      5          7           0        0.707893   -1.055857    0.000000
      6          6           0        1.106738    0.255670    0.000000
      7          1           0        2.141412    0.625004    0.000000
 ---------------------------------------------------------------------

 SCF Done:  E(RHF) =  -253.451802897     A.U. after    1 cycles
 E2 =    -0.3485108062D+00 EUMP2 =    -0.25380031370320D+03
 E2 =    -0.3485108062D+00 EUMP2 =    -0.25380031370320D+03

 The electronic state is 1-A'.
 Alpha  occ. eigenvalues --  -15.48082 -15.44092 -15.41035 -15.37808 -11.15314
 Alpha  occ. eigenvalues --   -1.35956  -1.15402  -1.09883  -0.82174  -0.79752
 Alpha  occ. eigenvalues --   -0.70876  -0.57426  -0.57078  -0.46785  -0.39944
 Alpha  occ. eigenvalues --   -0.38454  -0.35926  -0.33473
 Alpha virt. eigenvalues --    0.20601   0.27066   0.46163   0.48247   0.58784
 Alpha virt. eigenvalues --    0.60958   0.61830   0.80025   0.85911

 Mulliken atomic charges:
              1
     1  N   -0.058037
     2  N   -0.029691
     3  N   -0.239185
     4  H    0.252331
     5  N   -0.166135
     6  C    0.124305
     7  H    0.116411
 Sum of Mulliken atomic charges =   0.00000

 Dipole moment (field-independent basis, Debye):
    X=              2.2868    Y=              4.4294    Z=              0.0000  Tot=              4.9848
 Quadrupole moment (field-independent basis, Debye-Ang):
   XX=            -27.6696   YY=            -25.3849   ZZ=            -25.8849
   XY=              1.9754   XZ=              0.0000   YZ=              0.0000

  Exact polarizability:  23.761   1.782  24.965   0.000   0.000   6.245
 Approx polarizability:  30.016  -0.549  35.882   0.000   0.000   4.179

                     1                      2                      3
                    A"                     A"                     A"
 Frequencies --   440.9543               653.7115               671.6215
 Red. masses --     1.9469                 3.1522                 3.4472
 Frc consts  --     0.2230                 0.7937                 0.9162
 IR Inten    --    74.5159                 6.5735                16.3877

                     4                      5                      6
                    A"                     A'                     A'
 Frequencies --   834.4362               895.8087               966.2750
 Red. masses --     1.2274                 6.6752                 6.4688
 Frc consts  --     0.5035                 3.1560                 3.5586
 IR Inten    --    10.0922                 3.6435                 1.8614

                     7                      8                      9
                    A'                     A'                     A'
 Frequencies --  1019.6903              1038.1789              1128.0519
 Red. masses --     6.8101                 5.6298                 2.9784
 Frc consts  --     4.1720                 3.5751                 2.2330
 IR Inten    --    18.0260                 3.0778                 8.4945

                    10                     11                     12
                    A'                     A'                     A'
 Frequencies --  1160.8881              1266.2518              1493.7312
 Red. masses --     1.4620                 3.6918                 2.4681
 Frc consts  --     1.1609                 3.4877                 3.2445
 IR Inten    --     3.8576                 2.1486                40.9370

                    13                     14                     15
                    A'                     A'                     A'
 Frequencies --  1540.8184              3567.4276              3818.9069
 Red. masses --     5.1554                 1.0998                 1.0862
 Frc consts  --     7.2113                 8.2462                 9.3332
 IR Inten    --    20.2487                21.0730                91.2014

 - Thermochemistry -
 -------------------
 Temperature   298.150 Kelvin.  Pressure   1.00000 Atm.
 Atom     1 has atomic number  7 and mass  14.00307

 Molecular mass:    70.02795 amu.
 Principal axes and moments of inertia in atomic units:
                           1         2         3
     Eigenvalues --   190.52843 196.98793 387.51635
           X            0.79523   0.60631   0.00000
           Y           -0.60631   0.79523   0.00000
           Z            0.00000   0.00000   1.00000
 This molecule is an asymmetric top.
 Rotational symmetry number  1.
 Rotational temperatures (Kelvin)      0.45460     0.43969     0.22351
 Rotational constants (GHZ):           9.47229     9.16168     4.65720
 Zero-point vibrational energy     122597.8 (Joules/Mol)
                                   29.30158 (Kcal/Mol)
 Warning -- explicit consideration of   1 degrees of freedom as
           vibrations may cause significant error
 Vibrational temperatures:    634.43   940.54   966.31  1200.57  1288.87
          (Kelvin)           1390.25  1467.11  1493.71  1623.01  1670.26
                             1821.85  2149.14  2216.89  5132.73  5494.55

 Zero-point correction=                           0.046695 (Hartree/Particle)
 Thermal correction to Energy=                    0.050352
 Thermal correction to Enthalpy=                  0.051296
 Thermal correction to Gibbs Free Energy=         0.020350
 Sum of electronic and zero-point Energies=           -253.753619
 Sum of electronic and thermal Energies=              -253.749962
 Sum of electronic and thermal Enthalpies=            -253.749017
 Sum of electronic and thermal Free Energies=         -253.779963

                     E (Thermal)             CV                S
                      KCal/Mol        Cal/Mol-Kelvin    Cal/Mol-Kelvin
 Total                   31.596             12.153             65.132
 Electronic               0.000              0.000              0.000
 Translational            0.889              2.981             38.656
 Rotational               0.889              2.981             24.190
 Vibrational             29.819              6.192              2.285
 Vibration     1          0.801              1.381              0.824

 Optimization completed.
    -- Stationary point found.
 Normal termination of Gaussian 09 at Wed Feb  8 11:17:52 2012.
