 Gaussian 98, Revision A.7,
 Gaussian 98:  SGI64-G98RevA.7 11-Apr-1999

 --------------------------
 #MP2=FULL/6-31G** opt freq
 --------------------------

 ----------------------------------------
 1H tetrazole c CH-NH-N=N-N= casno=288948
 ----------------------------------------
 Symbolic Z-matrix:
 Charge =  0 Multiplicity = 1

 SCF Done:  E(RHF) =  -256.760119013     A.U. after   15 cycles
 E2 =    -0.8042791760D+00 EUMP2 =    -0.25756439818895D+03
 SCF Done:  E(RHF) =  -256.754202950     A.U. after   13 cycles
 E2 =    -0.8169234098D+00 EUMP2 =    -0.25757112635939D+03
 SCF Done:  E(RHF) =  -256.751773472     A.U. after   13 cycles
 E2 =    -0.8196997181D+00 EUMP2 =    -0.25757147319025D+03
 SCF Done:  E(RHF) =  -256.750962802     A.U. after   12 cycles
 E2 =    -0.8205708778D+00 EUMP2 =    -0.25757153367937D+03
 SCF Done:  E(RHF) =  -256.751069746     A.U. after   11 cycles
 E2 =    -0.8204868192D+00 EUMP2 =    -0.25757155656537D+03
 SCF Done:  E(RHF) =  -256.751274736     A.U. after   11 cycles
 E2 =    -0.8202862925D+00 EUMP2 =    -0.25757156102865D+03
 Optimization completed.
    -- Stationary point found.
 Normal termination of Gaussian 98.

 --------------------------------------------------------
 #N Geom=AllCheck Guess=TCheck RMP2(Full)/6-31G(d,p) Freq
 --------------------------------------------------------

 1H tetrazole c CH-NH-N=N-N= casno=288948
 ----------------------------------------
 Redundant internal coordinates taken from checkpointfile:
 /wrk/Gau-4754398.chk
 Charge =  0 Multiplicity = 1

                         Standard orientation:
 ---------------------------------------------------------------------
 Center     Atomic     Atomic              Coordinates (Angstroms)
 Number     Number      Type              X           Y           Z
 ---------------------------------------------------------------------
    1          7             0       -0.721271   -0.939960    0.000000
    2          7             0       -1.126897    0.317333    0.000000
    3          7             0        0.000000    1.054595    0.000000
    4          1             0       -0.056268    2.060954    0.000000
    5          7             0        0.638964   -1.012687    0.000000
    6          6             0        1.071209    0.239237    0.000000
    7          1             0        2.093435    0.568666    0.000000
 ---------------------------------------------------------------------

 SCF Done:  E(RHF) =  -256.751274736     A.U. after    1 cycles
 E2 =    -0.8202862909D+00 EUMP2 =    -0.25757156102705D+03

  The electronic state is 1-A'.
 Alpha  occ. eigenvalues --  -15.69324 -15.67048 -15.65416 -15.61213 -11.34285
 Alpha  occ. eigenvalues --   -1.48532  -1.25662  -1.18547  -0.90841  -0.88733
 Alpha  occ. eigenvalues --   -0.79676  -0.67409  -0.67059  -0.56429  -0.48275
 Alpha  occ. eigenvalues --   -0.46892  -0.45361  -0.41086
 Alpha virt. eigenvalues --    0.13306   0.18388   0.19650   0.25188   0.36307
 Alpha virt. eigenvalues --    0.38370   0.46151   0.49600   0.64194   0.73069
 Alpha virt. eigenvalues --    0.73971   0.82251   0.82559   0.88652   0.90777

  Exact polarizability:  37.525   1.340  36.241   0.000   0.000  15.484
 Approx polarizability:  38.465  -0.126  40.539   0.000   0.000  17.051

                     1                      2                      3
                    A"                     A"                     A"
 Frequencies --   617.6032               702.2972               738.2939
 Red. masses --     2.6052                 1.9115                 4.0631
 Frc consts  --     0.5855                 0.5555                 1.3049
 IR Inten    --    63.6420                19.0336                19.7203
 Raman Activ --     0.0000                 0.0000                 0.0000

                     4                      5                      6
                    A"                     A'                     A'
 Frequencies --   826.0728               971.4939              1012.5956
 Red. masses --     1.2864                 4.8348                 6.0773
 Frc consts  --     0.5172                 2.6885                 3.6714
 IR Inten    --    26.2315                 2.5497                 3.3100
 Raman Activ --     0.0000                 0.0000                 0.0000

                     7                      8                      9
                    A'                     A'                     A'
 Frequencies --  1095.8529              1119.7798              1160.0015
 Red. masses --     4.4979                 4.0388                 2.6207
 Frc consts  --     3.1825                 2.9838                 2.0777
 IR Inten    --    29.1336                10.9006                15.9502
 Raman Activ --     0.0000                 0.0000                 0.0000

                    10                     11                     12
                    A'                     A'                     A'
 Frequencies --  1205.5304              1282.6301              1502.6510
 Red. masses --     3.2321                 2.9078                 2.3854
 Frc consts  --     2.7675                 2.8185                 3.1734
 IR Inten    --     1.7856                 1.9719                26.3857
 Raman Activ --     0.0000                 0.0000                 0.0000

                    13                     14                     15
                    A'                     A'                     A'
 Frequencies --  1514.0350              3380.2089              3728.4751
 Red. masses --     4.5608                 1.1003                 1.0843
 Frc consts  --     6.1598                 7.4074                 8.8811
 IR Inten    --     9.3049                 2.1425               112.8411
 Raman Activ --     0.0000                 0.0000                 0.0000

 - Thermochemistry -
 -------------------
 Temperature   298.150 Kelvin.  Pressure   1.00000 Atm.
 Atom  1 has atomic number  7 and mass  14.00307

 Molecular mass:    70.02795 amu.
 Principal axes and moments of inertia in atomic units:
                           1         2         3
     EIGENVALUES --   172.91818 176.43362 349.35181
           X            0.70814   0.70607   0.00000
           Y           -0.70607   0.70814   0.00000
           Z            0.00000   0.00000   1.00000
 THIS MOLECULE IS AN ASYMMETRIC TOP.
 ROTATIONAL SYMMETRY NUMBER  1.
 ROTATIONAL TEMPERATURES (KELVIN)      0.50089     0.49091     0.24793
 ROTATIONAL CONSTANTS (GHZ)           10.43697    10.22901     5.16597
 Zero-point vibrational energy     124755.7 (Joules/Mol)
                                   29.81733 (Kcal/Mol)
 WARNING-- EXPLICIT CONSIDERATION OF   1 DEGREES OF FREEDOM AS
           VIBRATIONS MAY CAUSE SIGNIFICANT ERROR
 VIBRATIONAL TEMPERATURES:    888.59  1010.44  1062.23  1188.53  1397.76
          (KELVIN)           1456.89  1576.68  1611.10  1668.97  1734.48
                             1845.41  2161.97  2178.35  4863.34  5364.41

 Zero-point correction=                           0.047517 (Hartree/Particle)
 Thermal correction to Energy=                    0.050963
 Thermal correction to Enthalpy=                  0.051908
 Thermal correction to Gibbs Free Energy=         0.021419
 Sum of electronic and zero-point Energies=           -257.524044
 Sum of electronic and thermal Energies=              -257.520598
 Sum of electronic and thermal Enthalpies=            -257.519653
 Sum of electronic and thermal Free Energies=         -257.550142

                     E (Thermal)             CV                S
                      KCAL/MOL        CAL/MOL-KELVIN    CAL/MOL-KELVIN
 TOTAL                   31.980             11.204             64.168
 ELECTRONIC               0.000              0.000              0.000
 TRANSLATIONAL            0.889              2.981             38.656
 ROTATIONAL               0.889              2.981             23.881
 VIBRATIONAL             30.203              5.242              1.631
 VIBRATION  1             0.977              0.995              0.420
                       Q            LOG10(Q)             LN(Q)
 TOTAL BOT       0.140595D-09         -9.852031        -22.685140
 TOTAL V=0       0.100947D+13         12.004094         27.640447
 VIB (BOT)       0.165162D-21        -21.782091        -50.155117
 VIB (BOT)  1    0.237388D+00         -0.624541         -1.438059
 VIB (V=0)       0.118586D+01          0.074034          0.170470
 VIB (V=0)  1    0.105349D+01          0.022631          0.052110
 ELECTRONIC      0.100000D+01          0.000000          0.000000
 TRANSLATIONAL   0.230339D+08          7.362368         16.952478
 ROTATIONAL      0.369566D+05          4.567692         10.517499
 ***** Axes restored to original set *****
 -------------------------------------------------------------------
 Center     Atomic                   Forces (Hartrees/Bohr)
 Number     Number              X              Y              Z
 -------------------------------------------------------------------
    1          7           0.000477359    0.000073625    0.000000000
    2          7           0.000034687   -0.000355518    0.000000000
    3          7          -0.000070058    0.000558825    0.000000000
    4          1           0.000052899    0.000068366    0.000000000
    5          7          -0.000480102   -0.000197509    0.000000000
    6          6           0.000019100   -0.000174657    0.000000000
    7          1          -0.000033886    0.000026869    0.000000000
 -------------------------------------------------------------------
 Cartesian Forces:  Max     0.000558825 RMS     0.000216883

 GradGradGradGradGradGradGradGradGradGradGradGradGradGradGradGradGradGrad
 Berny optimization.
 Internal  Forces:  Max     0.000361474 RMS     0.000154188
 Search for a local minimum.
 Step number   1 out of a maximum of  36
 All quantities printed in internal units (Hartrees-Bohrs-Radians)
 Second derivative matrix not updated -- analytic derivatives used.
     Eigenvalues ---    0.00927   0.02475   0.07075   0.07904   0.10431
     Eigenvalues ---    0.10940   0.20662   0.28976   0.35100   0.37630
     Eigenvalues ---    0.40293   0.48448   0.49897   0.55688   0.62298
     Eigenvalues --- 1000.000001000.000001000.000001000.000001000.00000
     Eigenvalues --- 1000.000001000.000001000.000001000.000001000.00000
     Eigenvalues --- 1000.00000
 Angle between quadratic step and forces=  16.12 degrees.
 Linear search not attempted -- first point.
 Iteration  1 RMS(Cart)=  0.00033261 RMS(Int)=  0.00000010
 Iteration  2 RMS(Cart)=  0.00000008 RMS(Int)=  0.00000004
 Variable       Old X    -DE/DX   Delta X   Delta X   Delta X     New X
                                 (Linear)    (Quad)   (Total)
    R1        2.49653  -0.00016   0.00000  -0.00069  -0.00069   2.49584
    R2        2.57414  -0.00031   0.00000  -0.00072  -0.00072   2.57342
    R3        2.54479  -0.00017   0.00000  -0.00015  -0.00015   2.54464
    R4        1.90471   0.00009   0.00000   0.00015   0.00015   1.90486
    R5        2.54398   0.00036   0.00000   0.00077   0.00077   2.54475
    R6        2.50283   0.00024   0.00000   0.00042   0.00042   2.50326
    R7        2.02956  -0.00004   0.00000  -0.00009  -0.00009   2.02946
    A1        1.93629   0.00027   0.00000   0.00061   0.00061   1.93690
    A2        1.83807   0.00013   0.00000   0.00035   0.00035   1.83842
    A3        2.09429   0.00014   0.00000   0.00047   0.00047   2.09477
    A4        1.91164  -0.00027   0.00000  -0.00073  -0.00073   1.91091
    A5        2.27725   0.00013   0.00000   0.00025   0.00025   2.27751
    A6        1.84983  -0.00024   0.00000  -0.00048  -0.00048   1.84935
    A7        1.88895   0.00011   0.00000   0.00025   0.00025   1.88920
    A8        2.17923  -0.00007   0.00000  -0.00031  -0.00031   2.17892
    A9        2.21500  -0.00004   0.00000   0.00006   0.00006   2.21506
    D1        0.00000   0.00000   0.00000   0.00000   0.00000   0.00000
    D2        0.00000   0.00000   0.00000   0.00000   0.00000   0.00000
    D3        3.14159   0.00000   0.00000   0.00000   0.00000   3.14159
    D4        0.00000   0.00000   0.00000   0.00000   0.00000   0.00000
    D5        0.00000   0.00000   0.00000   0.00000   0.00000   0.00000
    D6        3.14159   0.00000   0.00000   0.00000   0.00000   3.14159
    D7        3.14159   0.00000   0.00000   0.00000   0.00000   3.14159
    D8        0.00000   0.00000   0.00000   0.00000   0.00000   0.00000
    D9        0.00000   0.00000   0.00000   0.00000   0.00000   0.00000
   D10        3.14159   0.00000   0.00000   0.00000   0.00000   3.14159
         Item               Value     Threshold  Converged?
 Maximum Force            0.000361     0.000450     YES
 RMS     Force            0.000154     0.000300     YES
 Maximum Displacement     0.000788     0.001800     YES
 RMS     Displacement     0.000333     0.001200     YES
 Predicted change in Energy=-7.085441D-07
 Optimization completed.
    -- Stationary point found.
                         ----------------------------
                         !   Optimized Parameters   !
                         ! (Angstroms and Degrees)  !
 ------------------------                            -------------------------
 ! Name  Definition              Value          Derivative Info.             !
 -----------------------------------------------------------------------------
 ! R1    R(1,2)                  1.3211         -DE/DX =   -0.0002           !
 ! R2    R(1,5)                  1.3622         -DE/DX =   -0.0003           !
 ! R3    R(2,3)                  1.3466         -DE/DX =   -0.0002           !
 ! R4    R(3,4)                  1.0079         -DE/DX =    0.0001           !
 ! R5    R(3,6)                  1.3462         -DE/DX =    0.0004           !
 ! R6    R(5,6)                  1.3244         -DE/DX =    0.0002           !
 ! R7    R(6,7)                  1.074          -DE/DX =    0.               !
 ! A1    A(2,1,5)              110.9411         -DE/DX =    0.0003           !
 ! A2    A(1,2,3)              105.3137         -DE/DX =    0.0001           !
 ! A3    A(2,3,4)              119.9941         -DE/DX =    0.0001           !
 ! A4    A(2,3,6)              109.5288         -DE/DX =   -0.0003           !
 ! A5    A(4,3,6)              130.477          -DE/DX =    0.0001           !
 ! A6    A(1,5,6)              105.9875         -DE/DX =   -0.0002           !
 ! A7    A(3,6,5)              108.2288         -DE/DX =    0.0001           !
 ! A8    A(3,6,7)              124.8608         -DE/DX =   -0.0001           !
 ! A9    A(5,6,7)              126.9104         -DE/DX =    0.               !
 ! D1    D(5,1,2,3)              0.             -DE/DX =    0.               !
 ! D2    D(2,1,5,6)              0.             -DE/DX =    0.               !
 ! D3    D(1,2,3,4)            180.             -DE/DX =    0.               !
 ! D4    D(1,2,3,6)              0.             -DE/DX =    0.               !
 ! D5    D(2,3,6,5)              0.             -DE/DX =    0.               !
 ! D6    D(2,3,6,7)            180.             -DE/DX =    0.               !
 ! D7    D(4,3,6,5)            180.             -DE/DX =    0.               !
 ! D8    D(4,3,6,7)              0.             -DE/DX =    0.               !
 ! D9    D(1,5,6,3)              0.             -DE/DX =    0.               !
 ! D10   D(1,5,6,7)            180.             -DE/DX =    0.               !
 -----------------------------------------------------------------------------
 GradGradGradGradGradGradGradGradGradGradGradGradGradGradGradGradGradGrad

 1\1\ NATIONAL INSTITUTE OF STANDARDS AND TECHNOLOGY-NEVA\Freq\RMP2-FU\
 6-31G(d,p)\C1H2N4\RDJ3\14-Aug-2001\0\\#N GEOM=ALLCHECK GUESS=TCHECK RM
 P2(FULL)/6-31G(D,P) FREQ\\1H tetrazole c CH-NH-N=N-N= casno=288948\\0,
 1\N,-1.1517703306,-0.2778173372,0.\N,-0.6770889551,0.9550639604,0.\N,0
 .6627945905,0.8202889766,0.\H,1.2515073052,1.6384225489,0.\N,-0.139454
 7224,-1.1892701161,0.\C,0.9835681012,-0.4871525898,0.\H,1.9857200103,-
 0.873365396,0.\\Version=SGI64-G98RevA.7\State=1-A'\HF=-256.7512747\MP2
 =-257.571561\RMSD=9.994e-10\RMSF=2.169e-04\Dipole=1.9887729,0.8683105,
 0.\DipoleDeriv=-0.0363455,-0.0528554,0.,-0.2186627,0.0558008,0.,0.,0.,
 -0.1698173,0.2685477,0.1018848,0.,0.2208973,-0.2902267,0.,0.,0.,-0.096
 5096,-0.3854474,-0.1736188,0.,-0.2003319,-0.2844595,0.,0.,0.,-0.137166
 5,0.2383052,0.0527428,0.,0.0407396,0.2890381,0.,0.,0.,0.3504917,-0.293
 1082,0.0686935,0.,0.0632994,-0.3393167,0.,0.,0.,-0.1933983,0.1471588,0
 .0001841,0.,0.0931634,0.4579452,0.,0.,0.,0.0723487,0.0608892,0.002969,
 0.,0.000895,0.1112187,0.,0.,0.,0.1740514\Polar=38.3277846,-0.346398,35
 .4387987,0.,0.,15.4842545\PG=CS [SG(C1H2N4)]\NImag=0\\0.53503965,0.047
 94649,0.42672011,0.,0.,0.12185691,-0.13177356,-0.10973542,0.,0.4782479
 4,-0.00946602,-0.24508447,0.,-0.05080078,0.51492019,0.,0.,-0.09422342,
 0.,0.,0.11252840,-0.09624061,-0.09027204,0.,-0.26790498,0.01887713,0.,
 0.70762207,-0.03920011,-0.05714543,0.,0.07452655,-0.12234992,0.,0.1816
 1604,0.96186969,0.,0.,0.02474720,0.,0.,-0.06772865,0.,0.,0.09535033,-0
 .01074302,-0.00055401,0.,-0.00708597,-0.03344487,0.,-0.20431083,-0.189
 10695,0.,0.20757438,0.00813172,0.00236779,0.,0.00531234,0.01091112,0.,
 -0.19702689,-0.34992065,0.,0.20528149,0.34542911,0.,0.,0.00886148,0.,0
 .,-0.01242445,0.,0.,-0.00980666,0.,0.,0.01595195,-0.18030472,0.0934994
 9,0.,-0.00308072,0.06906181,0.,-0.01500860,-0.09203962,0.,0.00006398,-
 0.00034163,0.,0.50627793,0.01784012,-0.13694997,0.,-0.00203012,-0.1134
 4412,0.,-0.00908205,-0.07387983,0.,0.00927144,-0.00595212,0.,0.0971256
 1,0.51796308,0.,0.,-0.08914810,0.,0.,0.03527677,0.,0.,0.01919388,0.,0.
 ,0.00756654,0.,0.,0.10783611,-0.11308806,0.05902147,0.,-0.06825814,0.0
 1019843,0.,-0.12964896,0.06853691,0.,0.01490018,-0.02179876,0.,-0.2942
 7083,-0.12486564,0.,0.93342081,-0.01825383,0.01202525,0.,0.08235918,-0
 .03870858,0.,0.06343567,-0.35381093,0.,0.00876002,-0.00267280,0.,-0.14
 936433,-0.20262486,0.,-0.10048168,0.68698144,0.,0.,0.01899621,0.,0.,0.
 01971224,0.,0.,-0.05694175,0.,0.,-0.00948931,0.,0.,-0.07444597,0.,0.,0
 .12815154,-0.00288967,0.00009402,0.,-0.00014456,-0.00442570,0.,0.00549
 191,-0.00433281,0.,-0.00039872,0.00044171,0.,-0.01367704,0.01174065,0.
 ,-0.34305499,0.11354497,0.,0.35467309,-0.00699839,-0.00193328,0.,0.000
 36825,-0.00624422,0.,0.03245214,-0.00476292,0.,-0.00020712,-0.00016245
 ,0.,-0.01794133,0.01488781,0.,0.10938928,-0.10118952,0.,-0.11706284,0.
 09940458,0.,0.,0.00890972,0.,0.,0.00685912,0.,0.,-0.00481435,0.,0.,-0.
 00065955,0.,0.,-0.00627923,0.,0.,-0.02598296,0.,0.,0.02196725\\-0.0004
 7736,-0.00007362,0.,-0.00003469,0.00035552,0.,0.00007006,-0.00055883,0
 .,-0.00005290,-0.00006837,0.,0.00048010,0.00019751,0.,-0.00001910,0.00
 017466,0.,0.00003389,-0.00002687,0.\\\@

 IF IT'S NOT TRUE, IT'S WELL INVENTED -- DANTE
 Job cpu time:  0 days  0 hours 26 minutes 15.6 seconds.
 File lengths (MBytes):  RWF=  407 Int=    0 D2E=    0 Chk=    4 Scr=    1
 Normal termination of Gaussian 98.
