 Gaussian 98, Revision A.4,
 Gaussian 98:  IBM-RS6000-G98RevA.4 11-Sep-1998

 ---------------------------
 #MP2=FULL/6-31+G** opt freq
 ---------------------------

 ----------------------------------------
 1H tetrazole c CH-NH-N=N-N= casno=288948
 ----------------------------------------
 Symbolic Z-matrix:
 Charge =  0 Multiplicity = 1

 SCF Done:  E(RHF) =  -256.767607569     A.U. after   15 cycles
 E2 =    -0.8139004594D+00 EUMP2 =    -0.25758150802859D+03
 SCF Done:  E(RHF) =  -256.761486275     A.U. after   13 cycles
 E2 =    -0.8271327396D+00 EUMP2 =    -0.25758861901433D+03
 SCF Done:  E(RHF) =  -256.758811696     A.U. after   13 cycles
 E2 =    -0.8301717179D+00 EUMP2 =    -0.25758898341421D+03
 SCF Done:  E(RHF) =  -256.757835618     A.U. after   13 cycles
 E2 =    -0.8312242622D+00 EUMP2 =    -0.25758905988046D+03
 SCF Done:  E(RHF) =  -256.758181472     A.U. after   11 cycles
 E2 =    -0.8309110999D+00 EUMP2 =    -0.25758909257157D+03
 SCF Done:  E(RHF) =  -256.758392318     A.U. after   12 cycles
 E2 =    -0.8307056667D+00 EUMP2 =    -0.25758909798489D+03
 Optimization completed.
    -- Stationary point found.
 Normal termination of Gaussian 98.

 ---------------------------------------------------------
 #N Geom=AllCheck Guess=TCheck RMP2(Full)/6-31+G(d,p) Freq
 ---------------------------------------------------------

 1H tetrazole c CH-NH-N=N-N= casno=288948
 ----------------------------------------
 Redundant internal coordinates taken from checkpointfile:
 /wrk/rdj3/Gau-4046.chk
 Charge =  0 Multiplicity = 1

                         Standard orientation:
 ---------------------------------------------------------------------
 Center     Atomic     Atomic              Coordinates (Angstroms)
 Number     Number      Type              X           Y           Z
 ---------------------------------------------------------------------
    1          7             0       -0.721970   -0.941565    0.000000
    2          7             0       -1.127158    0.317322    0.000000
    3          7             0        0.000000    1.055885    0.000000
    4          1             0       -0.057976    2.063415    0.000000
    5          7             0        0.638642   -1.013330    0.000000
    6          6             0        1.072550    0.240283    0.000000
    7          1             0        2.096076    0.566699    0.000000
 ---------------------------------------------------------------------

 SCF Done:  E(RHF) =  -256.758392318     A.U. after    1 cycles
 E2 =    -0.8307056665D+00 EUMP2 =    -0.25758909798468D+03

  The electronic state is 1-A'.
 Alpha  occ. eigenvalues --  -15.70111 -15.67975 -15.66403 -15.62219 -11.35006
 Alpha  occ. eigenvalues --   -1.49284  -1.26415  -1.19253  -0.91552  -0.89426
 Alpha  occ. eigenvalues --   -0.80287  -0.68086  -0.67629  -0.57071  -0.48978
 Alpha  occ. eigenvalues --   -0.47567  -0.46011  -0.41690
 Alpha virt. eigenvalues --    0.05107   0.08194   0.08642   0.10069   0.12396
 Alpha virt. eigenvalues --    0.14725   0.16227   0.17248   0.18920   0.20626
 Alpha virt. eigenvalues --    0.22252   0.23527   0.24596   0.27255   0.28871

  Exact polarizability:  43.899   0.718  42.592   0.000   0.000  24.126
 Approx polarizability:  40.951  -0.332  43.062   0.000   0.000  23.719

                     1                      2                      3
                    A"                     A"                     A"
 Frequencies --   577.7598               688.1560               717.7799
 Red. masses --     2.6183                 2.0765                 3.8044
 Frc consts  --     0.5149                 0.5794                 1.1548
 IR Inten    --    58.1764                16.1582                18.7512
 Raman Activ --     0.0000                 0.0000                 0.0000

                     4                      5                      6
                    A"                     A'                     A'
 Frequencies --   807.9010               964.6200              1007.3258
 Red. masses --     1.2437                 4.9105                 6.3035
 Frc consts  --     0.4783                 2.6921                 3.7685
 IR Inten    --    38.4741                 2.7181                 2.1454
 Raman Activ --     0.0000                 0.0000                 0.0000

                     7                      8                      9
                    A'                     A'                     A'
 Frequencies --  1087.9761              1114.3385              1151.4470
 Red. masses --     4.6943                 4.0396                 2.7521
 Frc consts  --     3.2739                 2.9555                 2.1499
 IR Inten    --    32.1694                10.7781                17.1680
 Raman Activ --     0.0000                 0.0000                 0.0000

                    10                     11                     12
                    A'                     A'                     A'
 Frequencies --  1199.7155              1275.9325              1494.0771
 Red. masses --     3.0129                 2.8582                 2.3625
 Frc consts  --     2.5550                 2.7416                 3.1071
 IR Inten    --     2.0937                 1.8791                24.3275
 Raman Activ --     0.0000                 0.0000                 0.0000

                    13                     14                     15
                    A'                     A'                     A'
 Frequencies --  1502.1523              3376.8471              3713.5475
 Red. masses --     4.4654                 1.1006                 1.0847
 Frc consts  --     5.9366                 7.3946                 8.8135
 IR Inten    --    11.9332                 3.6140               121.8441
 Raman Activ --     0.0000                 0.0000                 0.0000

 - Thermochemistry -
 -------------------
 Temperature   298.150 Kelvin.  Pressure   1.00000 Atm.
 Atom  1 has atomic number  7 and mass  14.00307

 Molecular mass:    70.02795 amu.
 Principal axes and moments of inertia in atomic units:
                           1         2         3
     EIGENVALUES --   173.35035 176.62595 349.97631
           X           -0.68867   0.72507   0.00000
           Y            0.72507   0.68867   0.00000
           Z            0.00000   0.00000   1.00000
 THIS MOLECULE IS AN ASYMMETRIC TOP.
 ROTATIONAL SYMMETRY NUMBER  1.
 ROTATIONAL TEMPERATURES (KELVIN)      0.49964     0.49038     0.24748
 ROTATIONAL CONSTANTS (GHZ)           10.41095    10.21787     5.15675
 Zero-point vibrational energy     123691.3 (Joules/Mol)
                                   29.56294 (Kcal/Mol)
 WARNING-- EXPLICIT CONSIDERATION OF   1 DEGREES OF FREEDOM AS
           VIBRATIONS MAY CAUSE SIGNIFICANT ERROR
 VIBRATIONAL TEMPERATURES:    831.26   990.10  1032.72  1162.38  1387.86
          (KELVIN)           1449.31  1565.35  1603.28  1656.67  1726.11
                             1835.77  2149.63  2161.25  4858.50  5342.94

 Zero-point correction=                           0.047112 (Hartree/Particle)
 Thermal correction to Energy=                    0.050603
 Thermal correction to Enthalpy=                  0.051547
 Thermal correction to Gibbs Free Energy=         0.020992
 Sum of electronic and zero-point Energies=           -257.541986
 Sum of electronic and thermal Energies=              -257.538495
 Sum of electronic and thermal Enthalpies=            -257.537551
 Sum of electronic and thermal Free Energies=         -257.568106

                     E (Thermal)             CV                S
                      KCAL/MOL        CAL/MOL-KELVIN    CAL/MOL-KELVIN
 TOTAL                   31.754             11.427             64.308
 ELECTRONIC               0.000              0.000              0.000
 TRANSLATIONAL            0.889              2.981             38.656
 ROTATIONAL               0.889              2.981             23.887
 VIBRATIONAL             29.977              5.465              1.765
 VIBRATION  1             0.934              1.079              0.490
                       Q            LOG10(Q)             LN(Q)
 TOTAL BOT       0.220914D-09         -9.655776        -22.233247
 TOTAL V=0       0.103248D+13         12.013884         27.662990
 VIB (BOT)       0.258820D-21        -21.587002        -49.705910
 VIB (BOT)  1    0.264340D+00         -0.577837         -1.330519
 VIB (V=0)       0.120964D+01          0.082658          0.190327
 VIB (V=0)  1    0.106558D+01          0.027584          0.063515
 ELECTRONIC      0.100000D+01          0.000000          0.000000
 TRANSLATIONAL   0.230339D+08          7.362368         16.952478
 ROTATIONAL      0.370560D+05          4.568858         10.520185
 ***** Axes restored to original set *****
 -------------------------------------------------------------------
 Center     Atomic                   Forces (Hartrees/Bohr)
 Number     Number              X              Y              Z
 -------------------------------------------------------------------
    1          7           0.000265000   -0.000135447    0.000000000
    2          7           0.000140115   -0.000273859    0.000000000
    3          7          -0.000004424    0.000581759    0.000000000
    4          1           0.000073791    0.000068869    0.000000000
    5          7          -0.000525809   -0.000156163    0.000000000
    6          6           0.000080488   -0.000122539    0.000000000
    7          1          -0.000029162    0.000037380    0.000000000
 -------------------------------------------------------------------
 Cartesian Forces:  Max     0.000581759 RMS     0.000201950

 GradGradGradGradGradGradGradGradGradGradGradGradGradGradGradGradGradGrad
 Berny optimization.
 Internal  Forces:  Max     0.000336546 RMS     0.000150440
 Search for a local minimum.
 Step number   1 out of a maximum of  36
 All quantities printed in internal units (Hartrees-Bohrs-Radians)
 Second derivative matrix not updated -- analytic derivatives used.
     Eigenvalues ---    0.00821   0.02400   0.06643   0.07476   0.10379
     Eigenvalues ---    0.10869   0.20548   0.28652   0.34637   0.37128
     Eigenvalues ---    0.40132   0.47824   0.49403   0.54919   0.61232
     Eigenvalues --- 1000.000001000.000001000.000001000.000001000.00000
     Eigenvalues --- 1000.000001000.000001000.000001000.000001000.00000
     Eigenvalues --- 1000.00000
 Angle between quadratic step and forces=  16.14 degrees.
 Linear search not attempted -- first point.
 Iteration  1 RMS(Cart)=  0.00032757 RMS(Int)=  0.00000007
 Iteration  2 RMS(Cart)=  0.00000006 RMS(Int)=  0.00000003
 Variable       Old X    -DE/DX   Delta X   Delta X   Delta X     New X
                                 (Linear)    (Quad)   (Total)
    R1        2.49914   0.00002   0.00000  -0.00016  -0.00016   2.49898
    R2        2.57476  -0.00031   0.00000  -0.00083  -0.00083   2.57392
    R3        2.54655  -0.00013   0.00000  -0.00016  -0.00016   2.54638
    R4        1.90710   0.00010   0.00000   0.00018   0.00018   1.90728
    R5        2.54628   0.00032   0.00000   0.00072   0.00072   2.54699
    R6        2.50688   0.00034   0.00000   0.00057   0.00057   2.50744
    R7        2.03016  -0.00004   0.00000  -0.00010  -0.00010   2.03006
    A1        1.93488   0.00013   0.00000   0.00033   0.00033   1.93521
    A2        1.83946   0.00021   0.00000   0.00044   0.00044   1.83990
    A3        2.09337   0.00017   0.00000   0.00056   0.00056   2.09393
    A4        1.91140  -0.00030   0.00000  -0.00072  -0.00072   1.91067
    A5        2.27842   0.00013   0.00000   0.00016   0.00016   2.27858
    A6        1.85132  -0.00016   0.00000  -0.00027  -0.00027   1.85105
    A7        1.88772   0.00012   0.00000   0.00023   0.00023   1.88795
    A8        2.18273  -0.00008   0.00000  -0.00034  -0.00034   2.18239
    A9        2.21273  -0.00004   0.00000   0.00012   0.00012   2.21285
    D1        0.00000   0.00000   0.00000   0.00000   0.00000   0.00000
    D2        0.00000   0.00000   0.00000   0.00000   0.00000   0.00000
    D3        3.14159   0.00000   0.00000   0.00000   0.00000   3.14159
    D4        0.00000   0.00000   0.00000   0.00000   0.00000   0.00000
    D5        0.00000   0.00000   0.00000   0.00000   0.00000   0.00000
    D6        3.14159   0.00000   0.00000   0.00000   0.00000   3.14159
    D7        3.14159   0.00000   0.00000   0.00000   0.00000   3.14159
    D8        0.00000   0.00000   0.00000   0.00000   0.00000   0.00000
    D9        0.00000   0.00000   0.00000   0.00000   0.00000   0.00000
   D10        3.14159   0.00000   0.00000   0.00000   0.00000   3.14159
         Item               Value     Threshold  Converged?
 Maximum Force            0.000337     0.000450     YES
 RMS     Force            0.000150     0.000300     YES
 Maximum Displacement     0.000750     0.001800     YES
 RMS     Displacement     0.000328     0.001200     YES
 Predicted change in Energy=-6.430429D-07
 Optimization completed.
    -- Stationary point found.
                         ----------------------------
                         !   Optimized Parameters   !
                         ! (Angstroms and Degrees)  !
 ------------------------                            -------------------------
 ! Name  Definition              Value          Derivative Info.             !
 -----------------------------------------------------------------------------
 ! R1    R(1,2)                  1.3225         -DE/DX =    0.               !
 ! R2    R(1,5)                  1.3625         -DE/DX =   -0.0003           !
 ! R3    R(2,3)                  1.3476         -DE/DX =   -0.0001           !
 ! R4    R(3,4)                  1.0092         -DE/DX =    0.0001           !
 ! R5    R(3,6)                  1.3474         -DE/DX =    0.0003           !
 ! R6    R(5,6)                  1.3266         -DE/DX =    0.0003           !
 ! R7    R(6,7)                  1.0743         -DE/DX =    0.               !
 ! A1    A(2,1,5)              110.8607         -DE/DX =    0.0001           !
 ! A2    A(1,2,3)              105.3931         -DE/DX =    0.0002           !
 ! A3    A(2,3,4)              119.9412         -DE/DX =    0.0002           !
 ! A4    A(2,3,6)              109.5149         -DE/DX =   -0.0003           !
 ! A5    A(4,3,6)              130.5439         -DE/DX =    0.0001           !
 ! A6    A(1,5,6)              106.0728         -DE/DX =   -0.0002           !
 ! A7    A(3,6,5)              108.1584         -DE/DX =    0.0001           !
 ! A8    A(3,6,7)              125.0613         -DE/DX =   -0.0001           !
 ! A9    A(5,6,7)              126.7802         -DE/DX =    0.               !
 ! D1    D(5,1,2,3)              0.             -DE/DX =    0.               !
 ! D2    D(2,1,5,6)              0.             -DE/DX =    0.               !
 ! D3    D(1,2,3,4)            180.             -DE/DX =    0.               !
 ! D4    D(1,2,3,6)              0.             -DE/DX =    0.               !
 ! D5    D(2,3,6,5)              0.             -DE/DX =    0.               !
 ! D6    D(2,3,6,7)            180.             -DE/DX =    0.               !
 ! D7    D(4,3,6,5)            180.             -DE/DX =    0.               !
 ! D8    D(4,3,6,7)              0.             -DE/DX =    0.               !
 ! D9    D(1,5,6,3)              0.             -DE/DX =    0.               !
 ! D10   D(1,5,6,7)            180.             -DE/DX =    0.               !
 -----------------------------------------------------------------------------
 GradGradGradGradGradGradGradGradGradGradGradGradGradGradGradGradGradGrad

 1\1\GINC-FERRUM\Freq\RMP2-FU\6-31+G(d,p)\C1H2N4\RDJ3\17-Apr-2000\0\\#N
  GEOM=ALLCHECK GUESS=TCHECK RMP2(FULL)/6-31+G(D,P) FREQ\\1H tetrazole
 c CH-NH-N=N-N= casno=288948\\0,1\N,-1.1532954443,-0.2787362169,0.\N,-0
 .6773902997,0.9551550045,0.\N,0.6635267375,0.8213558908,0.\H,1.2515674
 912,1.6415296418,0.\N,-0.1399955838,-1.1895807267,0.\C,0.9853155127,-0
 .4870870059,0.\H,1.9866215648,-0.8763652689,0.\\Version=IBM-RS6000-G98
 RevA.4\State=1-A'\HF=-256.7583923\MP2=-257.589098\RMSD=8.107e-10\RMSF=
 2.019e-04\Dipole=2.0760114,0.8842651,0.\DipoleDeriv=-0.0202283,-0.0640
 668,0.,-0.2383753,0.0943518,0.,0.,0.,-0.1855121,0.2870531,0.0717857,0.
 ,0.251366,-0.2951651,0.,0.,0.,-0.0995036,-0.4004188,-0.2124914,0.,-0.2
 353434,-0.3329765,0.,0.,0.,-0.1145351,0.2401283,0.0588823,0.,0.0471233
 ,0.2916085,0.,0.,0.,0.3484471,-0.3097171,0.0880965,0.,0.0543894,-0.347
 176,0.,0.,0.,-0.1898128,0.1330894,0.0610732,0.,0.1204005,0.4785069,0.,
 0.,0.,0.0480031,0.0700934,-0.0032794,0.,0.0004395,0.1108503,0.,0.,0.,0
 .1929134\Polar=44.0851018,-0.48794,42.4067537,0.,0.,24.1262675\PG=CS [
 SG(C1H2N4)]\NImag=0\\0.52794046,0.04754880,0.41825920,0.,0.,0.11516217
 ,-0.12992658,-0.10792114,0.,0.47190364,-0.00984443,-0.24011789,0.,-0.0
 4939488,0.50649078,0.,0.,-0.08841052,0.,0.,0.10537987,-0.09486324,-0.0
 8784750,0.,-0.26506490,0.01736585,0.,0.70021197,-0.03955231,-0.0557921
 6,0.,0.07146331,-0.12204069,0.,0.18353153,0.95277401,0.,0.,0.02238968,
 0.,0.,-0.06156476,0.,0.,0.08420672,-0.01027047,-0.00048821,0.,-0.00729
 291,-0.03325400,0.,-0.20242011,-0.18772864,0.,0.20567948,0.00799487,0.
 00226535,0.,0.00621182,0.01103553,0.,-0.19657077,-0.34804411,0.,0.2033
 4683,0.34293133,0.,0.,0.00853762,0.,0.,-0.01254473,0.,0.,-0.00771287,0
 .,0.,0.01486002,-0.17923770,0.09181290,0.,-0.00264993,0.06751024,0.,-0
 .01337612,-0.09072011,0.,-0.00006762,-0.00024174,0.,0.50054658,0.01690
 592,-0.13525377,0.,-0.00090124,-0.11150544,0.,-0.00990876,-0.07346012,
 0.,0.00903106,-0.00559811,0.,0.09567971,0.51054671,0.,0.,-0.08472096,0
 .,0.,0.03331774,0.,0.,0.01736030,0.,0.,0.00771156,0.,0.,0.10251796,-0.
 11077790,0.05682675,0.,-0.06678161,0.01210406,0.,-0.13048446,0.0673910
 5,0.,0.01477975,-0.02120804,0.,-0.29193911,-0.12260384,0.,0.92772960,-
 0.01613318,0.01253656,0.,0.08017254,-0.03770256,0.,0.06159318,-0.34860
 609,0.,0.00927373,-0.00240078,0.,-0.14585022,-0.19938257,0.,-0.1030779
 0,0.67657838,0.,0.,0.01831309,0.,0.,0.01674375,0.,0.,-0.04889379,0.,0.
 ,-0.01045302,0.,0.,-0.06958364,0.,0.,0.11813359,-0.00286457,0.00006840
 ,0.,-0.00018772,-0.00448682,0.,0.00599686,-0.00438483,0.,-0.00040812,0
 .00046704,0.,-0.01327610,0.01179714,0.,-0.34252628,0.11402185,0.,0.353
 26593,-0.00691967,-0.00189729,0.,0.00036959,-0.00615973,0.,0.03183646,
 -0.00483083,0.,-0.00018077,-0.00018921,0.,-0.01819078,0.01465331,0.,0.
 11056792,-0.10102294,0.,-0.11748277,0.09944670,0.,0.,0.00872891,0.,0.,
 0.00707866,0.,0.,-0.00578528,0.,0.,-0.00039859,0.,0.,-0.00660297,0.,0.
 ,-0.02425999,0.,0.,0.02123926\\-0.00026500,0.00013545,0.,-0.00014011,0
 .00027386,0.,0.00000442,-0.00058176,0.,-0.00007379,-0.00006887,0.,0.00
 052581,0.00015616,0.,-0.00008049,0.00012254,0.,0.00002916,-0.00003738,
 0.\\\@

 Boundary, n.  In political geography, an imaginary
 line between two nations, separating the imaginary
 rights of one from the imaginary rights of another.
                               -- Ambrose Bierce
 Job cpu time:  0 days  0 hours 52 minutes 59.5 seconds.
 File lengths (MBytes):  RWF=  784 Int=    0 D2E=    0 Chk=    3 Scr=    1
 Normal termination of Gaussian 98.
