 Gaussian 98, Revision A.7,
 Gaussian 98:  SGI64-G98RevA.7 11-Apr-1999

 ------------------------
 #CCSD(T)/6-311+G(3df,2p)
 ------------------------

 ------------------------------------
 1htz casno=288948 method=32 basis=10
 ------------------------------------
 Symbolic Z-matrix:
 Charge =  0 Multiplicity = 1

                         Standard orientation:
 ---------------------------------------------------------------------
 Center     Atomic     Atomic              Coordinates (Angstroms)
 Number     Number      Type              X           Y           Z
 ---------------------------------------------------------------------
    1          7             0       -0.722088   -0.941313    0.000000
    2          7             0       -1.128260    0.317506    0.000000
    3          7             0        0.000000    1.055501    0.000000
    4          1             0       -0.061410    2.067833    0.000000
    5          7             0        0.639685   -1.013826    0.000000
    6          6             0        1.072563    0.239704    0.000000
    7          1             0        2.100676    0.568870    0.000000
 ---------------------------------------------------------------------

 SCF Done:  E(RHF) =  -256.835085458     A.U. after   15 cycles
 CCSD(T)= -0.25785232424D+03

  The electronic state is 1-A'.
 Alpha  occ. eigenvalues --  -15.68775 -15.66855 -15.65449 -15.61052 -11.34169
 Alpha  occ. eigenvalues --   -1.48404  -1.25677  -1.18570  -0.90922  -0.88896
 Alpha  occ. eigenvalues --   -0.79705  -0.67560  -0.67326  -0.56871  -0.48837
 Alpha  occ. eigenvalues --   -0.47467  -0.45729  -0.41407
 Alpha virt. eigenvalues --    0.04608   0.07641   0.08725   0.09481   0.12346
 Alpha virt. eigenvalues --    0.13743   0.15690   0.16691   0.18141   0.19899
 Alpha virt. eigenvalues --    0.21676   0.22438   0.23491   0.25723   0.26397

 999349\CCSD=-257.7976826\CCSD(T)=-257.8523242\RMSD=5.855e-09\PG=CS [SG
 Normal termination of Gaussian 98.
