 Gaussian 98, Revision A.6,
 Gaussian 98:  IBM-RS6000-G98RevA.6 19-Oct-1998

 --------------------------
 #MP2/6-31G(2df,p) opt freq
 --------------------------

 -----------------------------------
 1htz casno=288948 method=3 basis=19
 -----------------------------------
 Symbolic Z-matrix:
 Charge =  0 Multiplicity = 1

 SCF Done:  E(RHF) =  -256.781973154     A.U. after   15 cycles
 E2 =    -0.9064906010D+00 EUMP2 =    -0.25768846375503D+03
 SCF Done:  E(RHF) =  -256.776628604     A.U. after   13 cycles
 E2 =    -0.9172563571D+00 EUMP2 =    -0.25769388496070D+03
 SCF Done:  E(RHF) =  -256.774264030     A.U. after   12 cycles
 E2 =    -0.9199827917D+00 EUMP2 =    -0.25769424682218D+03
 SCF Done:  E(RHF) =  -256.773495453     A.U. after   11 cycles
 E2 =    -0.9208248370D+00 EUMP2 =    -0.25769432029018D+03
 SCF Done:  E(RHF) =  -256.773610430     A.U. after   10 cycles
 E2 =    -0.9207314918D+00 EUMP2 =    -0.25769434192214D+03
 SCF Done:  E(RHF) =  -256.773792808     A.U. after   10 cycles
 E2 =    -0.9205534680D+00 EUMP2 =    -0.25769434627642D+03
 Optimization completed.
    -- Stationary point found.
 Normal termination of Gaussian 98.

 --------------------------------------------------------
 #N Geom=AllCheck Guess=TCheck RMP2(FC)/6-31G(2df,p) Freq
 --------------------------------------------------------

 1htz casno=288948 method=3 basis=19
 -----------------------------------
 Redundant internal coordinates taken from checkpointfile:
 /wrk/rdj3/Gau-22040.chk
 Charge =  0 Multiplicity = 1

                         Standard orientation:
 ---------------------------------------------------------------------
 Center     Atomic     Atomic              Coordinates (Angstroms)
 Number     Number      Type              X           Y           Z
 ---------------------------------------------------------------------
    1          7             0       -0.719295   -0.936605    0.000000
    2          7             0       -1.121027    0.318270    0.000000
    3          7             0        0.000000    1.052013    0.000000
    4          1             0       -0.059734    2.058620    0.000000
    5          7             0        0.634595   -1.012556    0.000000
    6          6             0        1.067978    0.237618    0.000000
    7          1             0        2.091950    0.567825    0.000000
 ---------------------------------------------------------------------

 SCF Done:  E(RHF) =  -256.773792808     A.U. after    1 cycles
 E2 =    -0.9205534606D+00 EUMP2 =    -0.25769434626907D+03

  The electronic state is 1-A'.
 Alpha  occ. eigenvalues --  -15.68607 -15.66271 -15.64815 -15.60647 -11.33906
 Alpha  occ. eigenvalues --   -1.48278  -1.25382  -1.17970  -0.90425  -0.88382
 Alpha  occ. eigenvalues --   -0.79227  -0.66992  -0.66989  -0.56118  -0.47932
 Alpha  occ. eigenvalues --   -0.46481  -0.45139  -0.40659
 Alpha virt. eigenvalues --    0.13913   0.18755   0.19732   0.25351   0.35300
 Alpha virt. eigenvalues --    0.38326   0.43048   0.44998   0.58497   0.64130
 Alpha virt. eigenvalues --    0.65766   0.67437   0.72110   0.74710   0.76254

  Exact polarizability:  38.867   1.245  37.354   0.000   0.000  18.311
 Approx polarizability:  39.867  -0.043  41.513   0.000   0.000  21.042

                     1                      2                      3
                    A"                     A"                     A"
 Frequencies --   629.2536               702.8768               743.3645
 Red. masses --     2.2746                 1.8633                 5.0171
 Frc consts  --     0.5307                 0.5424                 1.6334
 IR Inten    --    60.7535                14.9547                15.4210
 Raman Activ --     0.0000                 0.0000                 0.0000

                     4                      5                      6
                    A"                     A'                     A'
 Frequencies --   842.1455               969.5565              1010.2359
 Red. masses --     1.3261                 4.4304                 5.7321
 Frc consts  --     0.5541                 2.4538                 3.4468
 IR Inten    --    18.2633                 2.7142                 5.1565
 Raman Activ --     0.0000                 0.0000                 0.0000

                     7                      8                      9
                    A'                     A'                     A'
 Frequencies --  1097.9637              1127.0489              1153.6339
 Red. masses --     3.4673                 4.1455                 2.6132
 Frc consts  --     2.4627                 3.1025                 2.0491
 IR Inten    --    31.9226                10.5980                12.3779
 Raman Activ --     0.0000                 0.0000                 0.0000

                    10                     11                     12
                    A'                     A'                     A'
 Frequencies --  1200.5374              1269.9422              1476.3126
 Red. masses --     3.6476                 3.1869                 2.4543
 Frc consts  --     3.0975                 3.0282                 3.1517
 IR Inten    --     1.2314                 1.4466                24.8288
 Raman Activ --     0.0000                 0.0000                 0.0000

                    13                     14                     15
                    A'                     A'                     A'
 Frequencies --  1492.6200              3346.1958              3695.4123
 Red. masses --     4.8398                 1.1005                 1.0844
 Frc consts  --     6.3530                 7.2600                 8.7248
 IR Inten    --     6.8421                 3.8876               120.2731
 Raman Activ --     0.0000                 0.0000                 0.0000

 - Thermochemistry -
 -------------------
 Temperature   298.150 Kelvin.  Pressure   1.00000 Atm.
 Atom  1 has atomic number  7 and mass  14.00307

 Molecular mass:    70.02795 amu.
 Principal axes and moments of inertia in atomic units:
                           1         2         3
     EIGENVALUES --   171.77393 175.54063 347.31456
           X           -0.63326   0.77394   0.00000
           Y            0.77394   0.63326   0.00000
           Z            0.00000   0.00000   1.00000
 THIS MOLECULE IS AN ASYMMETRIC TOP.
 ROTATIONAL SYMMETRY NUMBER  1.
 ROTATIONAL TEMPERATURES (KELVIN)      0.50423     0.49341     0.24938
 ROTATIONAL CONSTANTS (GHZ)           10.50649    10.28105     5.19627
 Zero-point vibrational energy     124155.0 (Joules/Mol)
                                   29.67377 (Kcal/Mol)
 VIBRATIONAL TEMPERATURES:    905.35  1011.28  1069.53  1211.65  1394.97
          (KELVIN)           1453.50  1579.72  1621.56  1659.81  1727.30
                             1827.15  2124.07  2147.53  4814.40  5316.84

 Zero-point correction=                           0.047288 (Hartree/Particle)
 Thermal correction to Energy=                    0.050725
 Thermal correction to Enthalpy=                  0.051669
 Thermal correction to Gibbs Free Energy=         0.021203
 Sum of electronic and zero-point Energies=           -257.647058
 Sum of electronic and thermal Energies=              -257.643622
 Sum of electronic and thermal Enthalpies=            -257.642677
 Sum of electronic and thermal Free Energies=         -257.673143

                     E (Thermal)             CV                S
                      KCAL/MOL        CAL/MOL-KELVIN    CAL/MOL-KELVIN
 TOTAL                   31.830             11.169             64.121
 ELECTRONIC               0.000              0.000              0.000
 TRANSLATIONAL            0.889              2.981             38.656
 ROTATIONAL               0.889              2.981             23.864
 VIBRATIONAL             30.053              5.207              1.601
                       Q            LOG10(Q)             LN(Q)
 TOTAL BOT       0.176747D-09         -9.752647        -22.456300
 TOTAL V=0       0.995974D+12         11.998248         27.626987
 VIB (BOT)       0.209463D-21        -21.678893        -49.917496
 VIB (V=0)       0.118033D+01          0.072002          0.165792
 ELECTRONIC      0.100000D+01          0.000000          0.000000
 TRANSLATIONAL   0.230339D+08          7.362368         16.952478
 ROTATIONAL      0.366335D+05          4.563878         10.508718
 ***** Axes restored to original set *****
 -------------------------------------------------------------------
 Center     Atomic                   Forces (Hartrees/Bohr)
 Number     Number              X              Y              Z
 -------------------------------------------------------------------
    1          7           0.000271036    0.000540465    0.000000000
    2          7           0.000087627   -0.000322135    0.000000000
    3          7          -0.000356327    0.000390505    0.000000000
    4          1          -0.000005402    0.000090674    0.000000000
    5          7          -0.000044924   -0.000502041    0.000000000
    6          6           0.000084512   -0.000192630    0.000000000
    7          1          -0.000036521   -0.000004838    0.000000000
 -------------------------------------------------------------------
 Cartesian Forces:  Max     0.000540465 RMS     0.000225134

 GradGradGradGradGradGradGradGradGradGradGradGradGradGradGradGradGradGrad
 Berny optimization.
 Internal  Forces:  Max     0.000414481 RMS     0.000161574
 Search for a local minimum.
 Step number   1 out of a maximum of  36
 All quantities printed in internal units (Hartrees-Bohrs-Radians)
 Second derivative matrix not updated -- analytic derivatives used.
     Eigenvalues ---    0.00953   0.02516   0.07252   0.07990   0.10039
     Eigenvalues ---    0.10564   0.20613   0.29196   0.34682   0.37064
     Eigenvalues ---    0.39503   0.48086   0.49727   0.55013   0.61961
     Eigenvalues --- 1000.000001000.000001000.000001000.000001000.00000
     Eigenvalues --- 1000.000001000.000001000.000001000.000001000.00000
     Eigenvalues --- 1000.00000
 Angle between quadratic step and forces=  21.69 degrees.
 Linear search not attempted -- first point.
 Iteration  1 RMS(Cart)=  0.00035551 RMS(Int)=  0.00000013
 Iteration  2 RMS(Cart)=  0.00000012 RMS(Int)=  0.00000003
 Variable       Old X    -DE/DX   Delta X   Delta X   Delta X     New X
                                 (Linear)    (Quad)   (Total)
    R1        2.48992  -0.00023   0.00000  -0.00098  -0.00098   2.48895
    R2        2.56250  -0.00018   0.00000  -0.00024  -0.00024   2.56226
    R3        2.53187  -0.00011   0.00000   0.00011   0.00011   2.53198
    R4        1.90556   0.00009   0.00000   0.00016   0.00016   1.90572
    R5        2.53802   0.00041   0.00000   0.00082   0.00082   2.53884
    R6        2.50041   0.00016   0.00000   0.00030   0.00030   2.50071
    R7        2.03315  -0.00004   0.00000  -0.00007  -0.00007   2.03308
    A1        1.93666   0.00040   0.00000   0.00087   0.00087   1.93753
    A2        1.84052   0.00002   0.00000   0.00021   0.00021   1.84073
    A3        2.09108   0.00011   0.00000   0.00050   0.00050   2.09158
    A4        1.91055  -0.00022   0.00000  -0.00075  -0.00075   1.90980
    A5        2.28156   0.00011   0.00000   0.00024   0.00024   2.28180
    A6        1.84845  -0.00033   0.00000  -0.00079  -0.00079   1.84766
    A7        1.88859   0.00014   0.00000   0.00045   0.00045   1.88905
    A8        2.17815  -0.00008   0.00000  -0.00041  -0.00041   2.17774
    A9        2.21644  -0.00006   0.00000  -0.00004  -0.00004   2.21640
    D1        0.00000   0.00000   0.00000   0.00000   0.00000   0.00000
    D2        0.00000   0.00000   0.00000   0.00000   0.00000   0.00000
    D3        3.14159   0.00000   0.00000   0.00000   0.00000   3.14159
    D4        0.00000   0.00000   0.00000   0.00000   0.00000   0.00000
    D5        0.00000   0.00000   0.00000   0.00000   0.00000   0.00000
    D6        3.14159   0.00000   0.00000   0.00000   0.00000   3.14159
    D7        3.14159   0.00000   0.00000   0.00000   0.00000   3.14159
    D8        0.00000   0.00000   0.00000   0.00000   0.00000   0.00000
    D9        0.00000   0.00000   0.00000   0.00000   0.00000   0.00000
   D10        3.14159   0.00000   0.00000   0.00000   0.00000   3.14159
         Item               Value     Threshold  Converged?
 Maximum Force            0.000414     0.000450     YES
 RMS     Force            0.000162     0.000300     YES
 Maximum Displacement     0.000892     0.001800     YES
 RMS     Displacement     0.000356     0.001200     YES
 Predicted change in Energy=-8.110494D-07
 Optimization completed.
    -- Stationary point found.
                         ----------------------------
                         !   Optimized Parameters   !
                         ! (Angstroms and Degrees)  !
 ------------------------                            -------------------------
 ! Name  Definition              Value          Derivative Info.             !
 -----------------------------------------------------------------------------
 ! R1    R(1,2)                  1.3176         -DE/DX =   -0.0002           !
 ! R2    R(1,5)                  1.356          -DE/DX =   -0.0002           !
 ! R3    R(2,3)                  1.3398         -DE/DX =   -0.0001           !
 ! R4    R(3,4)                  1.0084         -DE/DX =    0.0001           !
 ! R5    R(3,6)                  1.3431         -DE/DX =    0.0004           !
 ! R6    R(5,6)                  1.3232         -DE/DX =    0.0002           !
 ! R7    R(6,7)                  1.0759         -DE/DX =    0.               !
 ! A1    A(2,1,5)              110.9627         -DE/DX =    0.0004           !
 ! A2    A(1,2,3)              105.4541         -DE/DX =    0.               !
 ! A3    A(2,3,4)              119.8098         -DE/DX =    0.0001           !
 ! A4    A(2,3,6)              109.4665         -DE/DX =   -0.0002           !
 ! A5    A(4,3,6)              130.7237         -DE/DX =    0.0001           !
 ! A6    A(1,5,6)              105.9084         -DE/DX =   -0.0003           !
 ! A7    A(3,6,5)              108.2084         -DE/DX =    0.0001           !
 ! A8    A(3,6,7)              124.7991         -DE/DX =   -0.0001           !
 ! A9    A(5,6,7)              126.9926         -DE/DX =   -0.0001           !
 ! D1    D(5,1,2,3)              0.             -DE/DX =    0.               !
 ! D2    D(2,1,5,6)              0.             -DE/DX =    0.               !
 ! D3    D(1,2,3,4)            180.             -DE/DX =    0.               !
 ! D4    D(1,2,3,6)              0.             -DE/DX =    0.               !
 ! D5    D(2,3,6,5)              0.             -DE/DX =    0.               !
 ! D6    D(2,3,6,7)            180.             -DE/DX =    0.               !
 ! D7    D(4,3,6,5)            180.             -DE/DX =    0.               !
 ! D8    D(4,3,6,7)              0.             -DE/DX =    0.               !
 ! D9    D(1,5,6,3)              0.             -DE/DX =    0.               !
 ! D10   D(1,5,6,7)            180.             -DE/DX =    0.               !
 -----------------------------------------------------------------------------
 GradGradGradGradGradGradGradGradGradGradGradGradGradGradGradGradGradGrad

 1\1\GINC-AURUM\Freq\RMP2-FC\6-31G(2df,p)\C1H2N4\RDJ3\18-May-2004\0\\#N
  GEOM=ALLCHECK GUESS=TCHECK RMP2(FC)/6-31G(2DF,P) FREQ\\1htz casno=288
 948 method=3 basis=19\\0,1\N,-0.7217630654,-0.9347041533,0.\N,-1.12018
 33065,0.3212261352,0.\N,0.0027755502,1.0520093265,0.\H,-0.0543027296,2
 .0587703331,0.\N,0.6319216767,-1.0142270456,0.\C,1.0686009238,0.234799
 3576,0.\H,2.0934412017,0.5623036814,0.\\Version=IBM-RS6000-G98RevA.6\S
 tate=1-A'\HF=-256.7737928\MP2=-257.6943463\RMSD=2.193e-09\RMSF=2.251e-
 04\Dipole=0.992045,1.8806535,0.\DipoleDeriv=0.111312,-0.0130929,0.,-0.
 1522071,-0.1075435,0.,0.,0.,-0.1661541,-0.1169651,0.2652021,0.,0.33792
 31,0.0509068,0.,0.,0.,-0.105906,-0.1408544,-0.0698492,0.,-0.1102684,-0
 .479316,0.,0.,0.,-0.1000038,0.2094892,-0.0080222,0.,-0.0238995,0.32827
 78,0.,0.,0.,0.3250958,-0.3740591,0.042813,0.,0.0608347,-0.2446551,0.,0
 .,0.,-0.1961058,0.2167648,-0.1930856,0.,-0.0918337,0.3547861,0.,0.,0.,
 0.0786433,0.0943126,-0.0239651,0.,-0.0205491,0.0975439,0.,0.,0.,0.1644
 307\Polar=38.8730767,1.2412606,37.3475268,0.,0.,18.3113913\PG=CS [SG(C
 1H2N4)]\NImag=0\\0.45249750,0.06440210,0.51488058,0.,0.,0.12400337,-0.
 11548218,-0.00811381,0.,0.54445422,0.09165054,-0.25633849,0.,-0.025021
 58,0.45062506,0.,0.,-0.09605375,0.,0.,0.11519158,-0.01806740,-0.059962
 96,0.,-0.25644147,-0.09118901,0.,0.61797689,-0.00857951,-0.13674272,0.
 ,-0.03676228,-0.13495198,0.,-0.08158913,1.02873480,0.,0.,0.02561446,0.
 ,0.,-0.07051958,0.,0.,0.10014263,-0.00887520,-0.00950240,0.,0.01195561
 ,-0.03137225,0.,-0.06824588,0.03518387,0.,0.05917740,-0.00143403,0.000
 93394,0.,0.00714558,-0.01056610,0.,0.02782126,-0.47197978,0.,-0.024354
 57,0.48297041,0.,0.,0.00870583,0.,0.,-0.01212255,0.,0.,-0.01024226,0.,
 0.,0.01585302,-0.22390739,0.02971852,0.,-0.08003276,0.09599820,0.,0.00
 976977,-0.02309801,0.,-0.00643742,-0.00083126,0.,0.41886714,-0.0457757
 7,-0.09838916,0.,0.02652793,-0.03774440,0.,0.05847861,-0.10013589,0.,0
 .00822252,0.00086284,0.,0.01137502,0.59638407,0.,0.,-0.09072962,0.,0.,
 0.03570313,0.,0.,0.02085176,0.,0.,0.00727093,0.,0.,0.10997301,-0.08693
 253,-0.01860227,0.,-0.10389923,-0.04026375,0.,-0.27321318,0.12570147,0
 .,0.01286888,-0.00850146,0.,-0.11852000,-0.06045082,0.,0.91932175,-0.0
 9561380,-0.01863838,0.,0.03125190,-0.00538710,0.,0.12056421,-0.1969995
 6,0.,0.02222722,-0.00212699,0.,-0.08444678,-0.36182182,0.,0.09684840,0
 .66912609,0.,0.,0.01959648,0.,0.,0.02104030,0.,0.,-0.06197775,0.,0.,-0
 .00860221,0.,0.,-0.07735411,0.,0.,0.13501194,0.00076719,0.00206082,0.,
 -0.00055420,0.00019786,0.,-0.01177873,-0.01085640,0.,-0.00044339,0.000
 15448,0.,0.00026066,0.00162251,0.,-0.34962570,-0.09083115,0.,0.3613741
 7,-0.00464954,-0.00570577,0.,0.00497227,-0.00563699,0.,0.02587703,0.01
 207513,0.,-0.00040440,-0.00009431,0.,-0.02871568,0.00084437,0.,-0.0947
 3156,-0.08415223,0.,0.09765187,0.08266981,0.,0.,0.00886324,0.,0.,0.006
 76088,0.,0.,-0.00386926,0.,0.,-0.00086275,0.,0.,-0.00571509,0.,0.,-0.0
 2771464,0.,0.,0.02253762\\-0.00027104,-0.00054047,0.,-0.00008763,0.000
 32213,0.,0.00035633,-0.00039050,0.,0.00000540,-0.00009067,0.,0.0000449
 2,0.00050204,0.,-0.00008451,0.00019263,0.,0.00003652,0.00000484,0.\\\@

 GOD DOES NOT PLAY WITH DICE.
               -- A. EINSTEIN
 Job cpu time:  0 days  3 hours 12 minutes 37.0 seconds.
 File lengths (MBytes):  RWF= 2639 Int=    0 D2E=    0 Chk=    4 Scr=    1
 Normal termination of Gaussian 98.
