 Gaussian 98, Revision A.6,
 Gaussian 98:  IBM-RS6000-G98RevA.6 19-Oct-1998

 -----------------------
 #MP2/CEP-121G* opt freq
 -----------------------

 ----------------------------------------
 1H tetrazole c CH-NH-N=N-N= casno=288948
 ----------------------------------------
 Symbolic Z-matrix:
 Charge =  0 Multiplicity = 1

 SCF Done:  E(RHF) =  -45.3090795290     A.U. after   15 cycles
 E2 =    -0.7816305540D+00 EUMP2 =    -0.46090710082975D+02
 SCF Done:  E(RHF) =  -45.3027218204     A.U. after   13 cycles
 E2 =    -0.7999466314D+00 EUMP2 =    -0.46102668451793D+02
 SCF Done:  E(RHF) =  -45.2990121420     A.U. after   13 cycles
 E2 =    -0.8041839332D+00 EUMP2 =    -0.46103196075168D+02
 SCF Done:  E(RHF) =  -45.2978343970     A.U. after   13 cycles
 E2 =    -0.8054457768D+00 EUMP2 =    -0.46103280173775D+02
 SCF Done:  E(RHF) =  -45.2980994450     A.U. after   12 cycles
 E2 =    -0.8052230220D+00 EUMP2 =    -0.46103322467057D+02
 SCF Done:  E(RHF) =  -45.2983259499     A.U. after   12 cycles
 E2 =    -0.8050045600D+00 EUMP2 =    -0.46103330509941D+02
 SCF Done:  E(RHF) =  -45.2983604808     A.U. after   10 cycles
 E2 =    -0.8049709503D+00 EUMP2 =    -0.46103331431072D+02
 Optimization completed.
    -- Stationary point found.
 Normal termination of Gaussian 98.

 -------------------------------------------------------
 #N Geom=AllCheck Guess=TCheck RMP2(FC)/CEP-121G(d) Freq
 -------------------------------------------------------

 1H tetrazole c CH-NH-N=N-N= casno=288948
 ----------------------------------------
 Redundant internal coordinates taken from checkpointfile:
 /wrk/rdj3/Gau-15290.chk
 Charge =  0 Multiplicity = 1

                         Standard orientation:
 ---------------------------------------------------------------------
 Center     Atomic     Atomic              Coordinates (Angstroms)
 Number     Number      Type              X           Y           Z
 ---------------------------------------------------------------------
    1          7             0       -0.747358   -0.969280    0.000000
    2          7             0       -1.146446    0.306402    0.000000
    3          7             0        0.000000    1.038162    0.000000
    4          1             0       -0.051477    2.053473    0.000000
    5          7             0        0.626014   -1.054609    0.000000
    6          6             0        1.071536    0.204769    0.000000
    7          1             0        2.104288    0.524080    0.000000
 ---------------------------------------------------------------------

 SCF Done:  E(RHF) =  -45.2983604808     A.U. after    1 cycles
 E2 =    -0.8049709494D+00 EUMP2 =    -0.46103331430199D+02

  The electronic state is 1-A'.
 Alpha  occ. eigenvalues --   -1.48496  -1.26092  -1.19003  -0.91188  -0.88901
 Alpha  occ. eigenvalues --   -0.79568  -0.67417  -0.66644  -0.56484  -0.48560
 Alpha  occ. eigenvalues --   -0.47229  -0.45388  -0.41173
 Alpha virt. eigenvalues --    0.11656   0.11833   0.15880   0.16429   0.25839
 Alpha virt. eigenvalues --    0.28077   0.33961   0.39387   0.44105   0.48298
 Alpha virt. eigenvalues --    0.52493   0.55298   0.60095   0.62273   0.64531

  Exact polarizability:  41.678   1.270  39.810   0.000   0.000  20.084
 Approx polarizability:  40.851  -0.149  42.579   0.000   0.000  21.211

                     1                      2                      3
                    A"                     A"                     A"
 Frequencies --   595.2849               685.1546               716.2446
 Red. masses --     2.4759                 2.0873                 3.5324
 Frc consts  --     0.5169                 0.5773                 1.0677
 IR Inten    --    65.6415                12.1731                22.5104
 Raman Activ --     0.0000                 0.0000                 0.0000

                     4                      5                      6
                    A"                     A'                     A'
 Frequencies --   802.5856               945.7065               993.6197
 Red. masses --     1.3075                 4.5814                 6.4106
 Frc consts  --     0.4962                 2.4141                 3.7290
 IR Inten    --    40.4203                 2.9491                 2.6492
 Raman Activ --     0.0000                 0.0000                 0.0000

                     7                      8                      9
                    A'                     A'                     A'
 Frequencies --  1072.5247              1096.9611              1130.5358
 Red. masses --     3.9437                 4.4454                 3.2252
 Frc consts  --     2.6728                 3.1517                 2.4287
 IR Inten    --    33.3273                 9.5496                16.6317
 Raman Activ --     0.0000                 0.0000                 0.0000

                    10                     11                     12
                    A'                     A'                     A'
 Frequencies --  1173.4332              1250.4551              1465.0334
 Red. masses --     2.5722                 3.1640                 2.5983
 Frc consts  --     2.0868                 2.9149                 3.2858
 IR Inten    --     2.3832                 1.5452                18.7064
 Raman Activ --     0.0000                 0.0000                 0.0000

                    13                     14                     15
                    A'                     A'                     A'
 Frequencies --  1471.9500              3317.1437              3643.9779
 Red. masses --     3.7956                 1.1011                 1.0848
 Frc consts  --     4.8453                 7.1387                 8.4870
 IR Inten    --    16.3505                 1.6016               100.4219
 Raman Activ --     0.0000                 0.0000                 0.0000

 - Thermochemistry -
 -------------------
 Temperature   298.150 Kelvin.  Pressure   1.00000 Atm.
 Atom  1 has atomic number  7 and mass  14.00307

 Molecular mass:    70.02795 amu.
 Principal axes and moments of inertia in atomic units:
                           1         2         3
     EIGENVALUES --   176.05705 180.07245 356.12950
           X           -0.69456   0.71944   0.00000
           Y            0.71944   0.69456   0.00000
           Z            0.00000   0.00000   1.00000
 THIS MOLECULE IS AN ASYMMETRIC TOP.
 ROTATIONAL SYMMETRY NUMBER  1.
 ROTATIONAL TEMPERATURES (KELVIN)      0.49196     0.48099     0.24321
 ROTATIONAL CONSTANTS (GHZ)           10.25089    10.02231     5.06765
 Zero-point vibrational energy     121783.5 (Joules/Mol)
                                   29.10696 (Kcal/Mol)
 WARNING-- EXPLICIT CONSIDERATION OF   1 DEGREES OF FREEDOM AS
           VIBRATIONS MAY CAUSE SIGNIFICANT ERROR
 VIBRATIONAL TEMPERATURES:    856.48   985.78  1030.51  1154.74  1360.65
          (KELVIN)           1429.59  1543.11  1578.27  1626.58  1688.30
                             1799.12  2107.84  2117.80  4772.60  5242.84

 Zero-point correction=                           0.046385 (Hartree/Particle)
 Thermal correction to Energy=                    0.049885
 Thermal correction to Enthalpy=                  0.050829
 Thermal correction to Gibbs Free Energy=         0.020241
 Sum of electronic and zero-point Energies=            -46.056947
 Sum of electronic and thermal Energies=               -46.053447
 Sum of electronic and thermal Enthalpies=             -46.052503
 Sum of electronic and thermal Free Energies=          -46.083090

                     E (Thermal)             CV                S
                      KCAL/MOL        CAL/MOL-KELVIN    CAL/MOL-KELVIN
 TOTAL                   31.303             11.537             64.376
 ELECTRONIC               0.000              0.000              0.000
 TRANSLATIONAL            0.889              2.981             38.656
 ROTATIONAL               0.889              2.981             23.939
 VIBRATIONAL             29.526              5.576              1.781
 VIBRATION  1             0.953              1.042              0.458
                       Q            LOG10(Q)             LN(Q)
 TOTAL BOT       0.489371D-09         -9.310362        -21.437900
 TOTAL V=0       0.105941D+13         12.025062         27.688729
 VIB (BOT)       0.558557D-21        -21.252933        -48.936686
 VIB (BOT)  1    0.252055D+00         -0.598505         -1.378108
 VIB (V=0)       0.120918D+01          0.082491          0.189942
 VIB (V=0)  1    0.105994D+01          0.025281          0.058211
 ELECTRONIC      0.100000D+01          0.000000          0.000000
 TRANSLATIONAL   0.230339D+08          7.362368         16.952478
 ROTATIONAL      0.380368D+05          4.580204         10.546309
 ***** Axes restored to original set *****
 -------------------------------------------------------------------
 Center     Atomic                   Forces (Hartrees/Bohr)
 Number     Number              X              Y              Z
 -------------------------------------------------------------------
    1          7          -0.000062220    0.000055126    0.000000000
    2          7          -0.000123116   -0.000108184    0.000000000
    3          7          -0.000006358    0.000108641    0.000000000
    4          1           0.000038587    0.000021728    0.000000000
    5          7          -0.000154603    0.000054116    0.000000000
    6          6           0.000278594   -0.000139685    0.000000000
    7          1           0.000029116    0.000008259    0.000000000
 -------------------------------------------------------------------
 Cartesian Forces:  Max     0.000278594 RMS     0.000090619

 GradGradGradGradGradGradGradGradGradGradGradGradGradGradGradGradGradGrad
 Berny optimization.
 Internal  Forces:  Max     0.000161024 RMS     0.000066113
 Search for a local minimum.
 Step number   1 out of a maximum of  36
 All quantities printed in internal units (Hartrees-Bohrs-Radians)
 Second derivative matrix not updated -- analytic derivatives used.
     Eigenvalues ---    0.00873   0.02370   0.06895   0.07570   0.10066
     Eigenvalues ---    0.10550   0.20064   0.28206   0.33493   0.35654
     Eigenvalues ---    0.38655   0.46459   0.47890   0.52837   0.59899
     Eigenvalues --- 1000.000001000.000001000.000001000.000001000.00000
     Eigenvalues --- 1000.000001000.000001000.000001000.000001000.00000
     Eigenvalues --- 1000.00000
 Angle between quadratic step and forces=  19.12 degrees.
 Linear search not attempted -- first point.
 Iteration  1 RMS(Cart)=  0.00015641 RMS(Int)=  0.00000002
 Iteration  2 RMS(Cart)=  0.00000002 RMS(Int)=  0.00000001
 Variable       Old X    -DE/DX   Delta X   Delta X   Delta X     New X
                                 (Linear)    (Quad)   (Total)
    R1        2.52590  -0.00008   0.00000  -0.00023  -0.00023   2.52567
    R2        2.60030   0.00002   0.00000  -0.00008  -0.00008   2.60022
    R3        2.57017   0.00013   0.00000   0.00022   0.00022   2.57040
    R4        1.92112   0.00004   0.00000   0.00009   0.00009   1.92121
    R5        2.56525   0.00013   0.00000   0.00035   0.00035   2.56560
    R6        2.52441   0.00016   0.00000   0.00033   0.00033   2.52474
    R7        2.04277   0.00002   0.00000   0.00005   0.00005   2.04282
    A1        1.93604  -0.00004   0.00000  -0.00003  -0.00003   1.93602
    A2        1.83569   0.00007   0.00000   0.00011   0.00011   1.83581
    A3        2.08823   0.00002   0.00000   0.00009   0.00009   2.08833
    A4        1.91247   0.00000   0.00000   0.00002   0.00002   1.91249
    A5        2.28248  -0.00002   0.00000  -0.00011  -0.00011   2.28237
    A6        1.84877   0.00011   0.00000   0.00026   0.00026   1.84903
    A7        1.89180  -0.00013   0.00000  -0.00036  -0.00036   1.89144
    A8        2.18070   0.00005   0.00000   0.00002   0.00002   2.18073
    A9        2.21068   0.00008   0.00000   0.00034   0.00034   2.21102
    D1        0.00000   0.00000   0.00000   0.00000   0.00000   0.00000
    D2        0.00000   0.00000   0.00000   0.00000   0.00000   0.00000
    D3        3.14159   0.00000   0.00000   0.00000   0.00000   3.14159
    D4        0.00000   0.00000   0.00000   0.00000   0.00000   0.00000
    D5        0.00000   0.00000   0.00000   0.00000   0.00000   0.00000
    D6        3.14159   0.00000   0.00000   0.00000   0.00000   3.14159
    D7        3.14159   0.00000   0.00000   0.00000   0.00000   3.14159
    D8        0.00000   0.00000   0.00000   0.00000   0.00000   0.00000
    D9        0.00000   0.00000   0.00000   0.00000   0.00000   0.00000
   D10        3.14159   0.00000   0.00000   0.00000   0.00000   3.14159
         Item               Value     Threshold  Converged?
 Maximum Force            0.000161     0.000450     YES
 RMS     Force            0.000066     0.000300     YES
 Maximum Displacement     0.000427     0.001800     YES
 RMS     Displacement     0.000156     0.001200     YES
 Predicted change in Energy=-1.334590D-07
 Optimization completed.
    -- Stationary point found.
                         ----------------------------
                         !   Optimized Parameters   !
                         ! (Angstroms and Degrees)  !
 ------------------------                            -------------------------
 ! Name  Definition              Value          Derivative Info.             !
 -----------------------------------------------------------------------------
 ! R1    R(1,2)                  1.3367         -DE/DX =   -0.0001           !
 ! R2    R(1,5)                  1.376          -DE/DX =    0.               !
 ! R3    R(2,3)                  1.3601         -DE/DX =    0.0001           !
 ! R4    R(3,4)                  1.0166         -DE/DX =    0.               !
 ! R5    R(3,6)                  1.3575         -DE/DX =    0.0001           !
 ! R6    R(5,6)                  1.3359         -DE/DX =    0.0002           !
 ! R7    R(6,7)                  1.081          -DE/DX =    0.               !
 ! A1    A(2,1,5)              110.9272         -DE/DX =    0.               !
 ! A2    A(1,2,3)              105.1776         -DE/DX =    0.0001           !
 ! A3    A(2,3,4)              119.647          -DE/DX =    0.               !
 ! A4    A(2,3,6)              109.5763         -DE/DX =    0.               !
 ! A5    A(4,3,6)              130.7766         -DE/DX =    0.               !
 ! A6    A(1,5,6)              105.9267         -DE/DX =    0.0001           !
 ! A7    A(3,6,5)              108.3922         -DE/DX =   -0.0001           !
 ! A8    A(3,6,7)              124.945          -DE/DX =    0.               !
 ! A9    A(5,6,7)              126.6627         -DE/DX =    0.0001           !
 ! D1    D(5,1,2,3)              0.             -DE/DX =    0.               !
 ! D2    D(2,1,5,6)              0.             -DE/DX =    0.               !
 ! D3    D(1,2,3,4)            180.             -DE/DX =    0.               !
 ! D4    D(1,2,3,6)              0.             -DE/DX =    0.               !
 ! D5    D(2,3,6,5)              0.             -DE/DX =    0.               !
 ! D6    D(2,3,6,7)            180.             -DE/DX =    0.               !
 ! D7    D(4,3,6,5)            180.             -DE/DX =    0.               !
 ! D8    D(4,3,6,7)              0.             -DE/DX =    0.               !
 ! D9    D(1,5,6,3)              0.             -DE/DX =    0.               !
 ! D10   D(1,5,6,7)            180.             -DE/DX =    0.               !
 -----------------------------------------------------------------------------
 GradGradGradGradGradGradGradGradGradGradGradGradGradGradGradGradGradGrad

 1\1\GINC-INDIUM\Freq\RMP2-FC\CEP-121G(d)\C1H2N4\RDJ3\10-Nov-2000\0\\#N
  GEOM=ALLCHECK GUESS=TCHECK RMP2(FC)/CEP-121G(D) FREQ\\1H tetrazole c
 CH-NH-N=N-N= casno=288948\\0,1\N,-1.187772387,-0.2953733756,0.\N,-0.70
 8121123,0.9522529797,0.\N,0.6448690582,0.8135867188,0.\H,1.2352026278,
 1.6412416933,0.\N,-0.1644911712,-1.2153337027,0.\C,0.9669367515,-0.505
 1267347,0.\H,1.9746284808,-0.8963978553,0.\\Version=IBM-RS6000-G98RevA
 .6\State=1-A'\HF=-45.2983605\MP2=-46.1033314\RMSD=1.122e-09\RMSF=9.062
 e-05\Dipole=2.0446329,0.8966985,0.\DipoleDeriv=-0.0234065,-0.0630811,0
 .,-0.219793,0.0733962,0.,0.,0.,-0.1743543,0.2818185,0.0766838,0.,0.227
 2455,-0.2940261,0.,0.,0.,-0.0938292,-0.3832156,-0.1624274,0.,-0.218398
 9,-0.3061862,0.,0.,0.,-0.1250675,0.2291576,0.0499144,0.,0.0303977,0.27
 05063,0.,0.,0.,0.3549535,-0.2940554,0.0716933,0.,0.0677964,-0.3508654,
 0.,0.,0.,-0.1839873,0.1357367,0.0217506,0.,0.1020373,0.4902148,0.,0.,0
 .,0.0184024,0.0539647,0.0054665,0.,0.010715,0.1169605,0.,0.,0.,0.20388
 24\Polar=42.1936284,-0.6194188,39.2939874,0.,0.,20.0842811\PG=CS [SG(C
 1H2N4)]\NImag=0\\0.51379377,0.04184238,0.40236951,0.,0.,0.11389975,-0.
 12748204,-0.10346389,0.,0.46148452,-0.00403154,-0.22778506,0.,-0.05182
 178,0.48364594,0.,0.,-0.08751885,0.,0.,0.10469818,-0.08964410,-0.08451
 280,0.,-0.26162188,0.01862082,0.,0.67975482,-0.03906864,-0.05301345,0.
 ,0.07302640,-0.12109427,0.,0.17631967,0.92041275,0.,0.,0.02158673,0.,0
 .,-0.06253529,0.,0.,0.08909052,-0.01103245,-0.00075751,0.,-0.00583220,
 -0.03238900,0.,-0.19403539,-0.18047227,0.,0.19680755,0.00793466,0.0018
 9366,0.,0.00548077,0.01162486,0.,-0.18910951,-0.33598588,0.,0.19550790
 ,0.33121593,0.,0.,0.00877939,0.,0.,-0.01226997,0.,0.,-0.00865078,0.,0.
 ,0.01501217,-0.17606901,0.09111482,0.,-0.00112072,0.06393330,0.,-0.014
 28528,-0.08676016,0.,-0.00019946,-0.00046323,0.,0.48017700,0.01604694,
 -0.13274686,0.,-0.00081626,-0.10474175,0.,-0.01153628,-0.07176254,0.,0
 .00905452,-0.00599745,0.,0.08922893,0.49391706,0.,0.,-0.08393616,0.,0.
 ,0.03219735,0.,0.,0.01995079,0.,0.,0.00702329,0.,0.,0.10284143,-0.1064
 9196,0.05572328,0.,-0.06509035,0.01019311,0.,-0.12653467,0.06233745,0.
 ,0.01474617,-0.01966465,0.,-0.27700627,-0.11430225,0.,0.89215726,-0.01
 598847,0.01138746,0.,0.07704570,-0.03548381,0.,0.05934233,-0.33401229,
 0.,0.00920724,-0.00254379,0.,-0.13941601,-0.19269544,0.,-0.10070065,0.
 64984327,0.,0.,0.01876977,0.,0.,0.01903483,0.,0.,-0.05483047,0.,0.,-0.
 00937472,0.,0.,-0.07217734,0.,0.,0.12301719,-0.00307423,0.00005371,0.,
 -0.00033734,-0.00450491,0.,0.00636648,-0.00538245,0.,-0.00045422,0.000
 31406,0.,-0.01149627,0.01232441,0.,-0.33178018,0.11050986,0.,0.3407757
 6,-0.00673532,-0.00210526,0.,0.00054906,-0.00616591,0.,0.03087578,-0.0
 0454432,0.,-0.00015087,-0.00020732,0.,-0.01763765,0.01402699,0.,0.1064
 1370,-0.09649539,0.,-0.11331468,0.09549123,0.,0.,0.00841937,0.,0.,0.00
 639376,0.,0.,-0.00461150,0.,0.,-0.00051938,0.,0.,-0.00589935,0.,0.,-0.
 02443926,0.,0.,0.02065635\\0.00006222,-0.00005513,0.,0.00012312,0.0001
 0818,0.,0.00000636,-0.00010864,0.,-0.00003859,-0.00002173,0.,0.0001546
 0,-0.00005412,0.,-0.00027859,0.00013969,0.,-0.00002912,-0.00000826,0.\
 \\@

 WHEN YOU REACH FOR THE STARS, YOU MAY NOT QUITE GET ONE,
 BUT YOU WON'T COME UP WITH A HANDFUL OF MUD, EITHER.

                                         -- LEO BURNETT (AD AGENCY HEAD)
 Job cpu time:  0 days  0 hours 20 minutes 52.0 seconds.
 File lengths (MBytes):  RWF=  463 Int=    0 D2E=    0 Chk=    8 Scr=    1
 Normal termination of Gaussian 98.
