 Gaussian 98, Revision A.4,
 Gaussian 98:  IBM-RS6000-G98RevA.4 11-Sep-1998

 --------------------
 #MP2/6-31G* OPT FREQ
 --------------------

 ----------------------------------------
 1H tetrazole c CH-NH-N=N-N= casno=288948
 ----------------------------------------
 Symbolic Z-matrix:
 Charge =  0 Multiplicity = 1

 SCF Done:  E(RHF) =  -256.754076242     A.U. after   15 cycles
 E2 =    -0.7737255747D+00 EUMP2 =    -0.25752780181686D+03
 SCF Done:  E(RHF) =  -256.747485055     A.U. after   13 cycles
 E2 =    -0.7878023595D+00 EUMP2 =    -0.25753528741468D+03
 SCF Done:  E(RHF) =  -256.744931464     A.U. after   13 cycles
 E2 =    -0.7907185070D+00 EUMP2 =    -0.25753564997126D+03
 SCF Done:  E(RHF) =  -256.744006940     A.U. after   13 cycles
 E2 =    -0.7917068288D+00 EUMP2 =    -0.25753571376882D+03
 SCF Done:  E(RHF) =  -256.744178799     A.U. after   11 cycles
 E2 =    -0.7915618033D+00 EUMP2 =    -0.25753574060242D+03
 SCF Done:  E(RHF) =  -256.744399026     A.U. after   11 cycles
 E2 =    -0.7913464768D+00 EUMP2 =    -0.25753574550264D+03
 Optimization completed.
    -- Stationary point found.
 Normal termination of Gaussian 98.

 ----------------------------------------------------
 #N Geom=AllCheck Guess=TCheck RMP2(FC)/6-31G(d) Freq
 ----------------------------------------------------

 1H tetrazole c CH-NH-N=N-N= casno=288948
 ----------------------------------------
 Redundant internal coordinates taken from checkpointfile:
 /wrk/rdj3/Gau-53280.chk
 Charge =  0 Multiplicity = 1

                         Standard orientation:
 ---------------------------------------------------------------------
 Center     Atomic     Atomic              Coordinates (Angstroms)
 Number     Number      Type              X           Y           Z
 ---------------------------------------------------------------------
    1          7             0       -0.722088   -0.941313    0.000000
    2          7             0       -1.128260    0.317506    0.000000
    3          7             0        0.000000    1.055501    0.000000
    4          1             0       -0.061410    2.067833    0.000000
    5          7             0        0.639685   -1.013826    0.000000
    6          6             0        1.072563    0.239704    0.000000
    7          1             0        2.100676    0.568870    0.000000
 ---------------------------------------------------------------------

 SCF Done:  E(RHF) =  -256.744399026     A.U. after    1 cycles
 E2 =    -0.7913464748D+00 EUMP2 =    -0.25753574550065D+03

  The electronic state is 1-A'.
 Alpha  occ. eigenvalues --  -15.69403 -15.67097 -15.65473 -15.61262 -11.34402
 Alpha  occ. eigenvalues --   -1.48405  -1.25554  -1.18476  -0.90716  -0.88684
 Alpha  occ. eigenvalues --   -0.79580  -0.67330  -0.66981  -0.56441  -0.48295
 Alpha  occ. eigenvalues --   -0.46921  -0.45320  -0.41064
 Alpha virt. eigenvalues --    0.13321   0.18354   0.19476   0.25025   0.36294
 Alpha virt. eigenvalues --    0.38313   0.46127   0.49545   0.64091   0.73569
 Alpha virt. eigenvalues --    0.73970   0.82309   0.82595   0.88779   0.91419

  Exact polarizability:  37.547   1.319  36.196   0.000   0.000  15.373
 Approx polarizability:  38.484  -0.145  40.504   0.000   0.000  16.880

                     1                      2                      3
                    A"                     A"                     A"
 Frequencies --   606.1252               697.5906               735.1152
 Red. masses --     2.3635                 1.8919                 4.9011
 Frc consts  --     0.5116                 0.5424                 1.5605
 IR Inten    --    73.5899                17.0317                15.2613
 Raman Activ --     0.0000                 0.0000                 0.0000

                     4                      5                      6
                    A"                     A'                     A'
 Frequencies --   811.0132               969.5317              1012.0711
 Red. masses --     1.2919                 4.7752                 6.1473
 Frc consts  --     0.5006                 2.6446                 3.7099
 IR Inten    --    31.7409                 2.7860                 3.5198
 Raman Activ --     0.0000                 0.0000                 0.0000

                     7                      8                      9
                    A'                     A'                     A'
 Frequencies --  1092.5169              1117.9164              1157.6082
 Red. masses --     4.4933                 3.9739                 2.8006
 Frc consts  --     3.1599                 2.9261                 2.2111
 IR Inten    --    30.7463                10.9179                16.7829
 Raman Activ --     0.0000                 0.0000                 0.0000

                    10                     11                     12
                    A'                     A'                     A'
 Frequencies --  1203.8085              1277.9404              1493.1138
 Red. masses --     2.9407                 2.9014                 2.4154
 Frc consts  --     2.5108                 2.7918                 3.1727
 IR Inten    --     1.6139                 2.2563                28.1835
 Raman Activ --     0.0000                 0.0000                 0.0000

                    13                     14                     15
                    A'                     A'                     A'
 Frequencies --  1505.5414              3349.8766              3661.9983
 Red. masses --     4.6944                 1.1009                 1.0847
 Frc consts  --     6.2693                 7.2786                 8.5703
 IR Inten    --     8.4423                 2.4856               114.0476
 Raman Activ --     0.0000                 0.0000                 0.0000

 - Thermochemistry -
 -------------------
 Temperature   298.150 Kelvin.  Pressure   1.00000 Atm.
 Atom  1 has atomic number  7 and mass  14.00307

 Molecular mass:    70.02795 amu.
 Principal axes and moments of inertia in atomic units:
                           1         2         3
     EIGENVALUES --   173.38623 176.91417 350.30040
           X            0.71210   0.70208   0.00000
           Y           -0.70208   0.71210   0.00000
           Z            0.00000   0.00000   1.00000
 THIS MOLECULE IS AN ASYMMETRIC TOP.
 ROTATIONAL SYMMETRY NUMBER  1.
 ROTATIONAL TEMPERATURES (KELVIN)      0.49954     0.48958     0.24725
 ROTATIONAL CONSTANTS (GHZ)           10.40879    10.20122     5.15198
 Zero-point vibrational energy     123764.3 (Joules/Mol)
                                   29.58037 (Kcal/Mol)
 WARNING-- EXPLICIT CONSIDERATION OF   1 DEGREES OF FREEDOM AS
           VIBRATIONS MAY CAUSE SIGNIFICANT ERROR
 VIBRATIONAL TEMPERATURES:    872.07  1003.67  1057.66  1166.86  1394.93
          (KELVIN)           1456.14  1571.88  1608.42  1665.53  1732.00
                             1838.66  2148.25  2166.13  4819.70  5268.77

 Zero-point correction=                           0.047139 (Hartree/Particle)
 Thermal correction to Energy=                    0.050601
 Thermal correction to Enthalpy=                  0.051545
 Thermal correction to Gibbs Free Energy=         0.021032
 Sum of electronic and zero-point Energies=           -257.488606
 Sum of electronic and thermal Energies=              -257.485145
 Sum of electronic and thermal Enthalpies=            -257.484201
 Sum of electronic and thermal Free Energies=         -257.514714

                     E (Thermal)             CV                S
                      KCAL/MOL        CAL/MOL-KELVIN    CAL/MOL-KELVIN
 TOTAL                   31.752             11.284             64.220
 ELECTRONIC               0.000              0.000              0.000
 TRANSLATIONAL            0.889              2.981             38.656
 ROTATIONAL               0.889              2.981             23.889
 VIBRATIONAL             29.975              5.323              1.674
 VIBRATION  1             0.965              1.019              0.439
                       Q            LOG10(Q)             LN(Q)
 TOTAL BOT       0.211881D-09         -9.673909        -22.274998
 TOTAL V=0       0.101983D+13         12.008526         27.650654
 VIB (BOT)       0.247894D-21        -21.605735        -49.749043
 VIB (BOT)  1    0.244800D+00         -0.611189         -1.407314
 VIB (V=0)       0.119317D+01          0.076701          0.176610
 VIB (V=0)  1    0.105671D+01          0.023956          0.055161
 ELECTRONIC      0.100000D+01          0.000000          0.000000
 TRANSLATIONAL   0.230339D+08          7.362368         16.952478
 ROTATIONAL      0.371072D+05          4.569458         10.521567
 ***** Axes restored to original set *****
 -------------------------------------------------------------------
 Center     Atomic                   Forces (Hartrees/Bohr)
 Number     Number              X              Y              Z
 -------------------------------------------------------------------
    1          7           0.000331518   -0.000281614    0.000000000
    2          7          -0.000152912   -0.000356412    0.000000000
    3          7           0.000288462    0.000515863    0.000000000
    4          1           0.000114587    0.000012831    0.000000000
    5          7          -0.000497910    0.000222368    0.000000000
    6          6          -0.000088598   -0.000141681    0.000000000
    7          1           0.000004853    0.000028645    0.000000000
 -------------------------------------------------------------------
 Cartesian Forces:  Max     0.000515863 RMS     0.000221292

 GradGradGradGradGradGradGradGradGradGradGradGradGradGradGradGradGradGrad
 Berny optimization.
 Internal  Forces:  Max     0.000358483 RMS     0.000158583
 Search for a local minimum.
 Step number   1 out of a maximum of  36
 All quantities printed in internal units (Hartrees-Bohrs-Radians)
 Second derivative matrix not updated -- analytic derivatives used.
     Eigenvalues ---    0.00883   0.02427   0.07051   0.07885   0.10451
     Eigenvalues ---    0.10891   0.20601   0.28881   0.35002   0.37388
     Eigenvalues ---    0.39601   0.47322   0.49173   0.55497   0.62194
     Eigenvalues --- 1000.000001000.000001000.000001000.000001000.00000
     Eigenvalues --- 1000.000001000.000001000.000001000.000001000.00000
     Eigenvalues --- 1000.00000
 Angle between quadratic step and forces=  16.21 degrees.
 Linear search not attempted -- first point.
 Iteration  1 RMS(Cart)=  0.00033942 RMS(Int)=  0.00000009
 Iteration  2 RMS(Cart)=  0.00000007 RMS(Int)=  0.00000004
 Variable       Old X    -DE/DX   Delta X   Delta X   Delta X     New X
                                 (Linear)    (Quad)   (Total)
    R1        2.49959  -0.00012   0.00000  -0.00054  -0.00054   2.49905
    R2        2.57702  -0.00036   0.00000  -0.00090  -0.00090   2.57612
    R3        2.54770  -0.00019   0.00000  -0.00024  -0.00024   2.54746
    R4        1.91655   0.00011   0.00000   0.00021   0.00021   1.91676
    R5        2.54652   0.00035   0.00000   0.00079   0.00079   2.54730
    R6        2.50609   0.00026   0.00000   0.00046   0.00046   2.50656
    R7        2.04000  -0.00002   0.00000  -0.00005  -0.00005   2.03995
    A1        1.93611   0.00022   0.00000   0.00050   0.00050   1.93662
    A2        1.83793   0.00018   0.00000   0.00041   0.00041   1.83835
    A3        2.08946   0.00017   0.00000   0.00060   0.00060   2.09006
    A4        1.91209  -0.00029   0.00000  -0.00075  -0.00075   1.91134
    A5        2.28164   0.00013   0.00000   0.00014   0.00014   2.28178
    A6        1.85010  -0.00020   0.00000  -0.00037  -0.00037   1.84973
    A7        1.88854   0.00011   0.00000   0.00020   0.00020   1.88875
    A8        2.18149  -0.00007   0.00000  -0.00032  -0.00032   2.18117
    A9        2.21316  -0.00003   0.00000   0.00012   0.00012   2.21327
    D1        0.00000   0.00000   0.00000   0.00000   0.00000   0.00000
    D2        0.00000   0.00000   0.00000   0.00000   0.00000   0.00000
    D3        3.14159   0.00000   0.00000   0.00000   0.00000   3.14159
    D4        0.00000   0.00000   0.00000   0.00000   0.00000   0.00000
    D5        0.00000   0.00000   0.00000   0.00000   0.00000   0.00000
    D6        3.14159   0.00000   0.00000   0.00000   0.00000   3.14159
    D7        3.14159   0.00000   0.00000   0.00000   0.00000   3.14159
    D8        0.00000   0.00000   0.00000   0.00000   0.00000   0.00000
    D9        0.00000   0.00000   0.00000   0.00000   0.00000   0.00000
   D10        3.14159   0.00000   0.00000   0.00000   0.00000   3.14159
         Item               Value     Threshold  Converged?
 Maximum Force            0.000358     0.000450     YES
 RMS     Force            0.000159     0.000300     YES
 Maximum Displacement     0.000809     0.001800     YES
 RMS     Displacement     0.000339     0.001200     YES
 Predicted change in Energy=-7.477516D-07
 Optimization completed.
    -- Stationary point found.
                         ----------------------------
                         !   Optimized Parameters   !
                         ! (Angstroms and Degrees)  !
 ------------------------                            -------------------------
 ! Name  Definition              Value          Derivative Info.             !
 -----------------------------------------------------------------------------
 ! R1    R(1,2)                  1.3227         -DE/DX =   -0.0001           !
 ! R2    R(1,5)                  1.3637         -DE/DX =   -0.0004           !
 ! R3    R(2,3)                  1.3482         -DE/DX =   -0.0002           !
 ! R4    R(3,4)                  1.0142         -DE/DX =    0.0001           !
 ! R5    R(3,6)                  1.3476         -DE/DX =    0.0004           !
 ! R6    R(5,6)                  1.3262         -DE/DX =    0.0003           !
 ! R7    R(6,7)                  1.0795         -DE/DX =    0.               !
 ! A1    A(2,1,5)              110.931          -DE/DX =    0.0002           !
 ! A2    A(1,2,3)              105.3058         -DE/DX =    0.0002           !
 ! A3    A(2,3,4)              119.7172         -DE/DX =    0.0002           !
 ! A4    A(2,3,6)              109.5545         -DE/DX =   -0.0003           !
 ! A5    A(4,3,6)              130.7282         -DE/DX =    0.0001           !
 ! A6    A(1,5,6)              106.0031         -DE/DX =   -0.0002           !
 ! A7    A(3,6,5)              108.2056         -DE/DX =    0.0001           !
 ! A8    A(3,6,7)              124.9899         -DE/DX =   -0.0001           !
 ! A9    A(5,6,7)              126.8045         -DE/DX =    0.               !
 ! D1    D(5,1,2,3)              0.             -DE/DX =    0.               !
 ! D2    D(2,1,5,6)              0.             -DE/DX =    0.               !
 ! D3    D(1,2,3,4)            180.             -DE/DX =    0.               !
 ! D4    D(1,2,3,6)              0.             -DE/DX =    0.               !
 ! D5    D(2,3,6,5)              0.             -DE/DX =    0.               !
 ! D6    D(2,3,6,7)            180.             -DE/DX =    0.               !
 ! D7    D(4,3,6,5)            180.             -DE/DX =    0.               !
 ! D8    D(4,3,6,7)              0.             -DE/DX =    0.               !
 ! D9    D(1,5,6,3)              0.             -DE/DX =    0.               !
 ! D10   D(1,5,6,7)            180.             -DE/DX =    0.               !
 -----------------------------------------------------------------------------
 GradGradGradGradGradGradGradGradGradGradGradGradGradGradGradGradGradGrad

 1\1\GINC-QUANTUM\Freq\RMP2-FC\6-31G(d)\C1H2N4\RDJ3\18-Dec-1998\0\\#N G
 EOM=ALLCHECK GUESS=TCHECK RMP2(FC)/6-31G(D) FREQ\\1H tetrazole c CH-NH
 -N=N-N= casno=288948\\0,1\N,-1.073197177,0.5056957719,0.\N,0.070639705
 9,1.1699535078,0.\N,1.0314208612,0.2241702796,0.\H,2.007615937,0.49918
 15296,0.\N,-0.854839392,-0.8404108182,0.\C,0.4620293287,-0.9971847916,
 0.\H,1.002040104,-1.9319339679,0.\\Version=IBM-RS6000-G98RevA.4\State=
 1-A'\HF=-256.744399\MP2=-257.5357455\RMSD=1.029e-09\RMSF=2.213e-04\Dip
 ole=2.1205904,-0.5790961,0.\DipoleDeriv=-0.1333782,0.1007111,0.,-0.065
 6602,0.1521514,0.,0.,0.,-0.1700399,0.2001584,-0.2994882,0.,-0.1755836,
 -0.2290781,0.,0.,0.,-0.0942647,-0.5226279,0.0254537,0.,-0.0045139,-0.1
 495728,0.,0.,0.,-0.1538842,0.3062769,0.0407488,0.,0.0274612,0.2302807,
 0.,0.,0.,0.3609854,-0.2483196,-0.0048713,0.,-0.0102928,-0.3894632,0.,0
 .,0.,-0.1949322,0.3089065,0.1108649,0.,0.2013829,0.2907795,0.,0.,0.,0.
 0721201,0.0889839,0.0265809,0.,0.0272065,0.0949026,0.,0.,0.,0.1800153\
 Polar=36.8044823,-1.4803249,36.9385405,0.,0.,15.3732216\PG=CS [SG(C1H2
 N4)]\NImag=0\\0.53646369,-0.04335906,0.41961290,0.,0.,0.12123303,-0.23
 218606,-0.11715266,0.,0.44076566,-0.01649860,-0.14145815,0.,0.00607565
 ,0.54758629,0.,0.,-0.09381842,0.,0.,0.11208113,-0.14340012,-0.01994538
 ,0.,-0.16548966,0.05176341,0.,0.96647278,0.03072258,-0.00933170,0.,0.1
 0762348,-0.22397772,0.,0.16207047,0.67878526,0.,0.,0.02483647,0.,0.,-0
 .06734560,0.,0.,0.09309022,-0.00229604,0.00277674,0.,-0.01365202,-0.01
 289497,0.,-0.43229286,-0.10638951,0.,0.44468254,0.01134858,-0.00634198
 ,0.,0.02570468,0.01744753,0.,-0.11482965,-0.10232258,0.,0.10909252,0.0
 9025703,0.,0.,0.00869955,0.,0.,-0.01241848,0.,0.,-0.00882442,0.,0.,0.0
 1534486,-0.10875202,0.07079886,0.,-0.01369346,-0.01113328,0.,-0.087288
 12,-0.08110293,0.,0.00176678,-0.00671146,0.,0.60290259,-0.00510156,-0.
 20655421,0.,-0.08165071,-0.10238204,0.,0.00129987,-0.00133929,0.,0.002
 88671,-0.00798422,0.,0.02667914,0.41611309,0.,0.,-0.08878700,0.,0.,0.0
 3510472,0.,0.,0.01892574,0.,0.,0.00758848,0.,0.,0.10735921,-0.04392268
 ,0.10347672,0.,-0.01127367,-0.01153687,0.,-0.15300096,-0.09237443,0.,0
 .00206860,-0.02493299,0.,-0.38927999,0.02820541,0.,0.73127034,0.026533
 58,-0.05672833,0.,0.06025892,-0.09521815,0.,-0.09610348,-0.32773627,0.
 ,0.00468805,0.00954454,0.,0.00357864,-0.10480388,0.,-0.14042452,0.8750
 0642,0.,0.,0.01910181,0.,0.,0.01957466,0.,0.,-0.05545185,0.,0.,-0.0099
 0007,0.,0.,-0.07383597,0.,0.,0.12518364,-0.00590677,0.00340477,0.,-0.0
 0447079,-0.00577533,0.,0.01499893,-0.02054968,0.,-0.00027700,0.0003283
 3,0.,-0.00565579,0.02768113,0.,-0.13586164,0.14146881,0.,0.13717305,-0
 .00364553,0.00080146,0.,-0.00085935,-0.00199776,0.,0.01574475,-0.01407
 769,0.,-0.00015955,-0.00060032,0.,-0.00210897,0.00695055,0.,0.13758669
 ,-0.30006433,0.,-0.14655803,0.30898808,0.,0.,0.00873456,0.,0.,0.006821
 99,0.,0.,-0.00523057,0.,0.,-0.00048991,0.,0.,-0.00635517,0.,0.,-0.0246
 7222,0.,0.,0.02119132\\-0.00033152,0.00028161,0.,0.00015291,0.00035641
 ,0.,-0.00028846,-0.00051586,0.,-0.00011459,-0.00001283,0.,0.00049791,-
 0.00022237,0.,0.00008860,0.00014168,0.,-0.00000485,-0.00002865,0.\\\@

 EVERYTHING'S GOT A MORAL, IF ONLY YOU CAN FIND IT.

                                    -- LEWIS CARROL, ALICE IN WONDERLAND
 Job cpu time:  0 days  0 hours 17 minutes 10.9 seconds.
 File lengths (MBytes):  RWF=  328 Int=    0 D2E=    0 Chk=    3 Scr=    1
 Normal termination of Gaussian 98.
