 Gaussian 03, Revision C.02,
 Gaussian 03:  IA32L-G03RevC.02 12-Jun-2004

 -------------------------
 #MP2/6-311G(d,p) opt freq
 -------------------------

 ----------------------------------------------------------
 1H tetrazole c CH-NH-N=N-N= casno=288948 method=3 basis=21
 ----------------------------------------------------------
 Symbolic Z-matrix:
 Charge =  0 Multiplicity = 1

 SCF Done:  E(RHF) =  -256.816032943     A.U. after   15 cycles
 E2 =    -0.8205547621D+00 EUMP2 =    -0.25763658770515D+03
 SCF Done:  E(RHF) =  -256.810276419     A.U. after   13 cycles
 E2 =    -0.8320241213D+00 EUMP2 =    -0.25764230053992D+03
 SCF Done:  E(RHF) =  -256.808080728     A.U. after   11 cycles
 E2 =    -0.8345237390D+00 EUMP2 =    -0.25764260446669D+03
 SCF Done:  E(RHF) =  -256.807361189     A.U. after   11 cycles
 E2 =    -0.8353060073D+00 EUMP2 =    -0.25764266719658D+03
 SCF Done:  E(RHF) =  -256.807451614     A.U. after   10 cycles
 E2 =    -0.8352325485D+00 EUMP2 =    -0.25764268416238D+03
 SCF Done:  E(RHF) =  -256.807610647     A.U. after   10 cycles
 E2 =    -0.8350764781D+00 EUMP2 =    -0.25764268712542D+03
 SCF Done:  E(RHF) =  -256.807651045     A.U. after    9 cycles
 E2 =    -0.8350369873D+00 EUMP2 =    -0.25764268803190D+03
 Optimization completed.
    -- Stationary point found.
 Normal termination of Gaussian 03 at Wed Jan  5 15:02:03 2005.

 ----------------------------------------------------------------------
 #N Geom=AllCheck Guess=Read SCRF=Check GenChk RMP2(FC)/6-311G(d,p) Fre
 q
 ----------------------------------------------------------------------

 1H tetrazole c CH-NH-N=N-N= casno=288948 method=3 basis=21
 ----------------------------------------------------------
 Redundant internal coordinates taken from checkpoint file:
 /scratch/Gau-7526.chk
 Charge =  0 Multiplicity = 1

                         Standard orientation:
 ---------------------------------------------------------------------
 Center     Atomic     Atomic              Coordinates (Angstroms)
 Number     Number      Type              X           Y           Z
 ---------------------------------------------------------------------
    1          7             0       -0.721569   -0.934482    0.000000
    2          7             0       -1.122212    0.317552    0.000000
    3          7             0        0.000000    1.054294    0.000000
    4          1             0       -0.059167    2.062483    0.000000
    5          7             0        0.634733   -1.014045    0.000000
    6          6             0        1.070786    0.235206    0.000000
    7          1             0        2.097784    0.563055    0.000000
 ---------------------------------------------------------------------

 SCF Done:  E(RHF) =  -256.807651045     A.U. after    1 cycles
 E2 =    -0.8350369905D+00 EUMP2 =    -0.25764268803506D+03

 The electronic state is 1-A'.
 Alpha  occ. eigenvalues --  -15.68576 -15.66243 -15.64582 -15.60520 -11.34086
 Alpha  occ. eigenvalues --   -1.49000  -1.25909  -1.18771  -0.90962  -0.88914
 Alpha  occ. eigenvalues --   -0.79802  -0.67609  -0.67330  -0.56645  -0.48403
 Alpha  occ. eigenvalues --   -0.47070  -0.45592  -0.41295
 Alpha virt. eigenvalues --    0.12649   0.12926   0.16615   0.17880   0.32761
 Alpha virt. eigenvalues --    0.36453   0.37489   0.44789   0.51609   0.56456
 Alpha virt. eigenvalues --    0.61241   0.62484   0.68777   0.74903   0.76968

 Mulliken atomic charges:
              1
     1  N   -0.073756
     2  N   -0.041065
     3  N   -0.321775
     4  H    0.271135
     5  N   -0.293693
     6  C    0.303889
     7  H    0.155265
 Sum of Mulliken charges=   0.00000

 Dipole moment (field-independent basis, Debye):
    X=     2.7523    Y=     5.0228    Z=     0.0000  Tot=     5.7275
 Quadrupole moment (field-independent basis, Debye-Ang):
   XX=   -28.8682   YY=   -26.6644   ZZ=   -28.8649
   XY=     2.0789   XZ=     0.0000   YZ=     0.0000

  Exact polarizability:  38.788   1.358  37.372   0.000   0.000  17.503
 Approx polarizability:  38.804  -0.050  40.869   0.000   0.000  18.613

                     1                      2                      3
                    A"                     A"                     A"
 Frequencies --   612.2797               700.8517               735.6778
 Red. masses --     2.5258                 1.9494                 3.8449
 Frc consts  --     0.5579                 0.5642                 1.2261
 IR Inten    --    59.8817                16.3362                20.5805

                     4                      5                      6
                    A"                     A'                     A'
 Frequencies --   834.8784               968.6724              1011.4425
 Red. masses --     1.3150                 4.3009                 5.9660
 Frc consts  --     0.5401                 2.3777                 3.5960
 IR Inten    --    24.7401                 3.0573                 3.0882

                     7                      8                      9
                    A'                     A'                     A'
 Frequencies --  1093.9817              1114.0680              1153.9711
 Red. masses --     4.5471                 3.1943                 2.3042
 Frc consts  --     3.2063                 2.3359                 1.8079
 IR Inten    --    28.2396                15.7073                12.1057

                    10                     11                     12
                    A'                     A'                     A'
 Frequencies --  1201.1899              1269.5795              1487.9750
 Red. masses --     5.0656                 3.1709                 3.1292
 Frc consts  --     4.3063                 3.0113                 4.0820
 IR Inten    --     3.0414                 1.5972                13.5688

                    13                     14                     15
                    A'                     A'                     A'
 Frequencies --  1489.2286              3329.1446              3683.6880
 Red. masses --     3.1733                 1.1007                 1.0844
 Frc consts  --     4.1466                 7.1877                 8.6697
 IR Inten    --    18.3445                 2.4583               114.3363

 - Thermochemistry -
 -------------------
 Temperature   298.150 Kelvin.  Pressure   1.00000 Atm.
 Atom  1 has atomic number  7 and mass  14.00307

 Molecular mass:    70.02795 amu.
 Principal axes and moments of inertia in atomic units:
                           1         2         3
     EIGENVALUES --   172.10476 176.01814 348.12290
           X           -0.68366   0.72980   0.00000
           Y            0.72980   0.68366   0.00000
           Z            0.00000   0.00000   1.00000
 This molecule is an asymmetric top.
 Rotational symmetry number  1.
 Rotational temperatures (Kelvin)      0.50326     0.49207     0.24880
 Rotational constants (GHZ):          10.48629    10.25315     5.18421
 Zero-point vibrational energy     123733.5 (Joules/Mol)
                                   29.57302 (Kcal/Mol)
 Warning -- explicit consideration of   1 degrees of freedom as
           vibrations may cause significant error
 Vibrational temperatures:    880.93  1008.37  1058.47  1201.20  1393.70
          (Kelvin)           1455.24  1573.99  1602.89  1660.31  1728.24
                             1826.64  2140.86  2142.67  4789.89  5300.00

 Zero-point correction=                           0.047128 (Hartree/Particle)
 Thermal correction to Energy=                    0.050580
 Thermal correction to Enthalpy=                  0.051524
 Thermal correction to Gibbs Free Energy=         0.021033
 Sum of electronic and zero-point Energies=           -257.595560
 Sum of electronic and thermal Energies=              -257.592108
 Sum of electronic and thermal Enthalpies=            -257.591164
 Sum of electronic and thermal Free Energies=         -257.621655

                     E (Thermal)             CV                S
                      KCal/Mol        Cal/Mol-Kelvin    Cal/Mol-Kelvin
 Total                   31.739             11.244             64.173
 Electronic               0.000              0.000              0.000
 Translational            0.889              2.981             38.656
 Rotational               0.889              2.981             23.871
 Vibrational             29.962              5.282              1.646
 Vibration  1             0.972              1.006              0.429

 Optimization completed.
    -- Stationary point found.
 Normal termination of Gaussian 03 at Wed Jan  5 15:14:33 2005.
