 Gaussian 98, Revision A.4,
 Gaussian 98:  x86-Linux-G98RevA.4 11-Sep-1998

 -------------------
 #MP2/3-21G opt freq
 -------------------

 ----------------------------------------
 1H tetrazole c CH-NH-N=N-N= casno=288948
 ----------------------------------------
 Symbolic Z-matrix:
 Charge =  0 Multiplicity = 1

 SCF Done:  E(RHF) =  -255.261123681     A.U. after   14 cycles
 E2 =    -0.5240915866D+00 EUMP2 =    -0.25578521526717D+03
 SCF Done:  E(RHF) =  -255.263652790     A.U. after   15 cycles
 E2 =    -0.5521375767D+00 EUMP2 =    -0.25581579036680D+03
 SCF Done:  E(RHF) =  -255.251211559     A.U. after   14 cycles
 E2 =    -0.5683559932D+00 EUMP2 =    -0.25581956755184D+03
 SCF Done:  E(RHF) =  -255.249086281     A.U. after   14 cycles
 E2 =    -0.5711483164D+00 EUMP2 =    -0.25582023459730D+03
 SCF Done:  E(RHF) =  -255.250605122     A.U. after   13 cycles
 E2 =    -0.5699144676D+00 EUMP2 =    -0.25582051959007D+03
 SCF Done:  E(RHF) =  -255.250936144     A.U. after   13 cycles
 E2 =    -0.5696290200D+00 EUMP2 =    -0.25582056516451D+03
 SCF Done:  E(RHF) =  -255.250815471     A.U. after   12 cycles
 E2 =    -0.5697579318D+00 EUMP2 =    -0.25582057340267D+03
 SCF Done:  E(RHF) =  -255.250611452     A.U. after   12 cycles
 E2 =    -0.5699672480D+00 EUMP2 =    -0.25582057869998D+03
 SCF Done:  E(RHF) =  -255.250468143     A.U. after   12 cycles
 E2 =    -0.5701127742D+00 EUMP2 =    -0.25582058091740D+03
 Optimization completed.
    -- Stationary point found.
 Normal termination of Gaussian 98.

 -------------------------------------------------
 #N Geom=AllCheck Guess=TCheck RMP2(FC)/3-21G Freq
 -------------------------------------------------

 1H tetrazole c CH-NH-N=N-N= casno=288948
 ----------------------------------------
 Redundant internal coordinates taken from checkpointfile:
 /wrk/rdj3/Gau-31522.chk
 Charge =  0 Multiplicity = 1

                         Standard orientation:
 ---------------------------------------------------------------------
 Center     Atomic     Atomic              Coordinates (Angstroms)
 Number     Number      Type              X           Y           Z
 ---------------------------------------------------------------------
    1          7             0       -0.751607   -1.003810    0.000000
    2          7             0       -1.191974    0.317046    0.000000
    3          7             0        0.000000    1.098579    0.000000
    4          1             0       -0.057793    2.111337    0.000000
    5          7             0        0.718585   -1.027651    0.000000
    6          6             0        1.087872    0.264425    0.000000
    7          1             0        2.105533    0.612964    0.000000
 ---------------------------------------------------------------------

 SCF Done:  E(RHF) =  -255.250468143     A.U. after    1 cycles
 E2 =    -0.5701127740D+00 EUMP2 =    -0.25582058091714D+03

  The electronic state is 1-A'.
 Alpha  occ. eigenvalues --  -15.62460 -15.62231 -15.60753 -15.55898 -11.30915
 Alpha  occ. eigenvalues --   -1.45227  -1.23616  -1.18888  -0.89962  -0.87470
 Alpha  occ. eigenvalues --   -0.79247  -0.65092  -0.64971  -0.55094  -0.48554
 Alpha  occ. eigenvalues --   -0.46606  -0.44482  -0.41869
 Alpha virt. eigenvalues --    0.10518   0.16337   0.22764   0.25781   0.33801
 Alpha virt. eigenvalues --    0.36716   0.41500   0.53976   0.59427   0.91982
 Alpha virt. eigenvalues --    0.93875   1.04216   1.08930   1.20287   1.31665

  Exact polarizability:  35.219   2.048  34.255   0.000   0.000  11.221
 Approx polarizability:  39.179  -0.689  44.013   0.000   0.000   9.050

                     1                      2                      3
                    A"                     A"                     A"
 Frequencies --   613.5948               668.6041               682.1278
 Red. masses --     3.0137                 3.4391                 1.7270
 Frc consts  --     0.6685                 0.9058                 0.4735
 IR Inten    --    79.5431                 3.5885                68.7533
 Raman Activ --     0.0000                 0.0000                 0.0000

                     4                      5                      6
                    A'                     A'                     A"
 Frequencies --   735.3121               812.6273               885.7865
 Red. masses --    11.0741                 9.1260                 1.3560
 Frc consts  --     3.5278                 3.5507                 0.6268
 IR Inten    --    18.0892                 2.9580                24.2874
 Raman Activ --     0.0000                 0.0000                 0.0000

                     7                      8                      9
                    A'                     A'                     A'
 Frequencies --   910.6544               977.2075               987.5982
 Red. masses --     5.6985                 8.8814                 7.3529
 Frc consts  --     2.7843                 4.9970                 4.2254
 IR Inten    --    11.1401                 1.4367                 3.3614
 Raman Activ --     0.0000                 0.0000                 0.0000

                    10                     11                     12
                    A'                     A'                     A'
 Frequencies --  1123.1807              1197.8993              1373.6809
 Red. masses --     2.2540                 2.1771                 2.5540
 Frc consts  --     1.6753                 1.8407                 2.8395
 IR Inten    --     6.5049                17.1152                 7.5484
 Raman Activ --     0.0000                 0.0000                 0.0000

                    13                     14                     15
                    A'                     A'                     A'
 Frequencies --  1413.2241              3336.5742              3591.7498
 Red. masses --     1.6688                 1.0983                 1.0848
 Frc consts  --     1.9637                 7.2038                 8.2455
 IR Inten    --    53.1635                 1.3718               118.4042
 Raman Activ --     0.0000                 0.0000                 0.0000

 - Thermochemistry -
 -------------------
 Temperature   298.150 Kelvin.  Pressure   1.00000 Atm.
 Atom  1 has atomic number  7 and mass  14.00307

 Molecular mass:    70.02795 amu.
 Principal axes and moments of inertia in atomic units:
                           1         2         3
     EIGENVALUES --   187.71510 192.46795 380.18306
           X            0.90288   0.42990   0.00000
           Y           -0.42990   0.90288   0.00000
           Z            0.00000   0.00000   1.00000
 THIS MOLECULE IS AN ASYMMETRIC TOP.
 ROTATIONAL SYMMETRY NUMBER  1.
 ROTATIONAL TEMPERATURES (KELVIN)      0.46141     0.45001     0.22782
 ROTATIONAL CONSTANTS (GHZ)            9.61426     9.37684     4.74703
 Zero-point vibrational energy     115498.4 (Joules/Mol)
                                   27.60478 (Kcal/Mol)
 WARNING-- EXPLICIT CONSIDERATION OF   1 DEGREES OF FREEDOM AS
           VIBRATIONS MAY CAUSE SIGNIFICANT ERROR
 VIBRATIONAL TEMPERATURES:    882.82   961.97   981.42  1057.94  1169.18
          (KELVIN)           1274.44  1310.22  1405.98  1420.93  1616.00
                             1723.50  1976.41  2033.30  4800.56  5167.70

 Zero-point correction=                           0.043991 (Hartree/Particle)
 Thermal correction to Energy=                    0.047639
 Thermal correction to Enthalpy=                  0.048583
 Thermal correction to Gibbs Free Energy=         0.017713
 Sum of electronic and zero-point Energies=           -255.776590
 Sum of electronic and thermal Energies=              -255.772942
 Sum of electronic and thermal Enthalpies=            -255.771998
 Sum of electronic and thermal Free Energies=         -255.802868

                     E (Thermal)             CV                S
                      KCAL/MOL        CAL/MOL-KELVIN    CAL/MOL-KELVIN
 TOTAL                   29.894             12.596             64.972
 ELECTRONIC               0.000              0.000              0.000
 TRANSLATIONAL            0.889              2.981             38.656
 ROTATIONAL               0.889              2.981             24.133
 VIBRATIONAL             28.116              6.634              2.183
 VIBRATION  1             0.973              1.003              0.427
                       Q            LOG10(Q)             LN(Q)
 TOTAL BOT       0.712433D-08         -8.147256        -18.759751
 TOTAL V=0       0.122199D+13         12.087069         27.831505
 VIB (BOT)       0.737228D-20        -20.132398        -46.356560
 VIB (BOT)  1    0.239946D+00         -0.619887         -1.427343
 VIB (V=0)       0.126452D+01          0.101927          0.234696
 VIB (V=0)  1    0.105459D+01          0.023085          0.053155
 ELECTRONIC      0.100000D+01          0.000000          0.000000
 TRANSLATIONAL   0.230339D+08          7.362368         16.952478
 ROTATIONAL      0.419541D+05          4.622775         10.644332
 ***** Axes restored to original set *****
 -------------------------------------------------------------------
 Center     Atomic                   Forces (Hartrees/Bohr)
 Number     Number              X              Y              Z
 -------------------------------------------------------------------
    1          7           0.000243804   -0.000305180    0.000000000
    2          7          -0.000183546    0.000147113    0.000000000
    3          7           0.000180950    0.000060943    0.000000000
    4          1           0.000014291   -0.000013641    0.000000000
    5          7          -0.000550036   -0.000035092    0.000000000
    6          6           0.000302838    0.000121782    0.000000000
    7          1          -0.000008301    0.000024074    0.000000000
 -------------------------------------------------------------------
 Cartesian Forces:  Max     0.000550036 RMS     0.000176705

 GradGradGradGradGradGradGradGradGradGradGradGradGradGradGradGradGradGrad
 Berny optimization.
 Internal  Forces:  Max     0.000358401 RMS     0.000104746
 Search for a local minimum.
 Step number   1 out of a maximum of  36
 All quantities printed in internal units (Hartrees-Bohrs-Radians)
 Second derivative matrix not updated -- analytic derivatives used.
     Eigenvalues ---    0.00967   0.02776   0.06838   0.07638   0.10161
     Eigenvalues ---    0.10589   0.11060   0.17303   0.22156   0.29905
     Eigenvalues ---    0.38833   0.40861   0.45896   0.46821   0.57254
     Eigenvalues --- 1000.000001000.000001000.000001000.000001000.00000
     Eigenvalues --- 1000.000001000.000001000.000001000.000001000.00000
     Eigenvalues --- 1000.00000
 Angle between quadratic step and forces=  29.93 degrees.
 Linear search not attempted -- first point.
 Iteration  1 RMS(Cart)=  0.00041064 RMS(Int)=  0.00000014
 Iteration  2 RMS(Cart)=  0.00000012 RMS(Int)=  0.00000005
 Variable       Old X    -DE/DX   Delta X   Delta X   Delta X     New X
                                 (Linear)    (Quad)   (Total)
    R1        2.63112   0.00014   0.00000   0.00107   0.00107   2.63219
    R2        2.77863  -0.00029   0.00000  -0.00245  -0.00245   2.77617
    R3        2.69350   0.00018   0.00000   0.00080   0.00080   2.69430
    R4        1.91695   0.00000   0.00000   0.00001   0.00001   1.91695
    R5        2.59056   0.00004   0.00000  -0.00017  -0.00017   2.59040
    R6        2.53944   0.00036   0.00000   0.00111   0.00111   2.54055
    R7        2.03276  -0.00002   0.00000  -0.00006  -0.00006   2.03270
    A1        1.90882   0.00011   0.00000   0.00055   0.00055   1.90937
    A2        1.82934  -0.00003   0.00000  -0.00064  -0.00064   1.82869
    A3        2.09414   0.00004   0.00000   0.00011   0.00011   2.09425
    A4        1.90709  -0.00005   0.00000   0.00006   0.00006   1.90715
    A5        2.28195   0.00001   0.00000  -0.00017  -0.00017   2.28178
    A6        1.83297  -0.00001   0.00000   0.00043   0.00043   1.83340
    A7        1.94656  -0.00002   0.00000  -0.00040  -0.00040   1.94616
    A8        2.15747  -0.00001   0.00000   0.00021   0.00021   2.15768
    A9        2.17915   0.00003   0.00000   0.00019   0.00019   2.17934
    D1        0.00000   0.00000   0.00000   0.00000   0.00000   0.00000
    D2        0.00000   0.00000   0.00000   0.00000   0.00000   0.00000
    D3        3.14159   0.00000   0.00000   0.00000   0.00000   3.14159
    D4        0.00000   0.00000   0.00000   0.00000   0.00000   0.00000
    D5        0.00000   0.00000   0.00000   0.00000   0.00000   0.00000
    D6        3.14159   0.00000   0.00000   0.00000   0.00000   3.14159
    D7        3.14159   0.00000   0.00000   0.00000   0.00000   3.14159
    D8        0.00000   0.00000   0.00000   0.00000   0.00000   0.00000
    D9        0.00000   0.00000   0.00000   0.00000   0.00000   0.00000
   D10        3.14159   0.00000   0.00000   0.00000   0.00000   3.14159
         Item               Value     Threshold  Converged?
 Maximum Force            0.000358     0.000450     YES
 RMS     Force            0.000105     0.000300     YES
 Maximum Displacement     0.001240     0.001800     YES
 RMS     Displacement     0.000411     0.001200     YES
 Predicted change in Energy=-7.403685D-07
 Optimization completed.
    -- Stationary point found.
                         ----------------------------
                         !   Optimized Parameters   !
                         ! (Angstroms and Degrees)  !
 ------------------------                            -------------------------
 ! Name  Definition              Value          Derivative Info.             !
 -----------------------------------------------------------------------------
 ! R1    R(1,2)                  1.3923         -DE/DX =    0.0001           !
 ! R2    R(1,5)                  1.4704         -DE/DX =   -0.0003           !
 ! R3    R(2,3)                  1.4253         -DE/DX =    0.0002           !
 ! R4    R(3,4)                  1.0144         -DE/DX =    0.               !
 ! R5    R(3,6)                  1.3709         -DE/DX =    0.               !
 ! R6    R(5,6)                  1.3438         -DE/DX =    0.0004           !
 ! R7    R(6,7)                  1.0757         -DE/DX =    0.               !
 ! A1    A(2,1,5)              109.3671         -DE/DX =    0.0001           !
 ! A2    A(1,2,3)              104.8132         -DE/DX =    0.               !
 ! A3    A(2,3,4)              119.9853         -DE/DX =    0.               !
 ! A4    A(2,3,6)              109.2685         -DE/DX =   -0.0001           !
 ! A5    A(4,3,6)              130.7462         -DE/DX =    0.               !
 ! A6    A(1,5,6)              105.0214         -DE/DX =    0.               !
 ! A7    A(3,6,5)              111.5298         -DE/DX =    0.               !
 ! A8    A(3,6,7)              123.614          -DE/DX =    0.               !
 ! A9    A(5,6,7)              124.8563         -DE/DX =    0.               !
 ! D1    D(5,1,2,3)              0.             -DE/DX =    0.               !
 ! D2    D(2,1,5,6)              0.             -DE/DX =    0.               !
 ! D3    D(1,2,3,4)            180.             -DE/DX =    0.               !
 ! D4    D(1,2,3,6)              0.             -DE/DX =    0.               !
 ! D5    D(2,3,6,5)              0.             -DE/DX =    0.               !
 ! D6    D(2,3,6,7)            180.             -DE/DX =    0.               !
 ! D7    D(4,3,6,5)            180.             -DE/DX =    0.               !
 ! D8    D(4,3,6,7)              0.             -DE/DX =    0.               !
 ! D9    D(1,5,6,3)              0.             -DE/DX =    0.               !
 ! D10   D(1,5,6,7)            180.             -DE/DX =    0.               !
 -----------------------------------------------------------------------------
 GradGradGradGradGradGradGradGradGradGradGradGradGradGradGradGradGradGrad

 1\1\GINC-QCHEM2\Freq\RMP2-FC\3-21G\C1H2N4\RDJ3\21-Oct-1999\0\\#N GEOM=
 ALLCHECK GUESS=TCHECK RMP2(FC)/3-21G FREQ\\1H tetrazole c CH-NH-N=N-N=
  casno=288948\\0,1\N,-1.2195617761,-0.2919201703,0.\N,-0.7143308066,1.
 0055108375,0.\N,0.7019512052,0.845068701,0.\H,1.3046090847,1.661047928
 8,0.\N,-0.1038675001,-1.2496567502,0.\C,1.0057893791,-0.4917040794,0.\
 H,2.0113167845,-0.873841779,0.\\Version=x86-Linux-G98RevA.4\State=1-A'
 \HF=-255.2504681\MP2=-255.8205809\RMSD=9.324e-10\RMSF=1.767e-04\Dipole
 =1.9808779,0.9090026,0.\DipoleDeriv=0.1869199,0.0759712,0.,-0.2274199,
 -0.0678117,0.,0.,0.,-0.1663961,0.3059906,-0.0797779,0.,0.1301383,-0.14
 90174,0.,0.,0.,-0.0549931,-0.5059495,-0.0064602,0.,-0.242723,-0.424970
 7,0.,0.,0.,-0.244081,0.243914,0.0316608,0.,0.0528272,0.2960833,0.,0.,0
 .,0.4014606,-0.4483228,0.0111762,0.,0.1687422,-0.2202022,0.,0.,0.,-0.1
 751002,0.1582989,-0.053921,0.,0.1225316,0.4488846,0.,0.,0.,0.045257,0.
 059149,0.0213509,0.,-0.0040963,0.1170342,0.,0.,0.,0.1938529\Polar=36.8
 387535,-0.0980323,32.6344761,0.,0.,11.2214067\PG=CS [SG(C1H2N4)]\NImag
 =0\\0.37932302,0.04342250,0.19957291,0.,0.,0.09932011,-0.09212019,-0.0
 6485974,0.,0.31768232,0.04833995,-0.08993725,0.,-0.07852577,0.31426877
 ,0.,0.,-0.07777902,0.,0.,0.09394822,-0.07707124,-0.06335232,0.,-0.1487
 1038,-0.00342830,0.,0.55502405,-0.03502710,-0.05752529,0.,0.06045977,-
 0.09946593,0.,0.19495482,0.83114717,0.,0.,0.02054744,0.,0.,-0.05992819
 ,0.,0.,0.09381409,-0.00847085,0.00001034,0.,-0.00328446,-0.02929620,0.
 ,-0.19966341,-0.17978290,0.,0.19740058,0.00843185,0.00163466,0.,0.0075
 8867,0.01060858,0.,-0.18524608,-0.32311152,0.,0.19031054,0.31744020,0.
 ,0.,0.00764842,0.,0.,-0.00980316,0.,0.,-0.01107017,0.,0.,0.01509869,-0
 .08625314,0.04062801,0.,-0.00611657,0.04871869,0.,-0.01717459,-0.07983
 314,0.,-0.00033865,0.00030693,0.,0.35020118,-0.05034383,-0.06211891,0.
 ,0.00731716,-0.09243846,0.,-0.01744768,-0.07111254,0.,0.00867388,-0.00
 390115,0.,0.12419579,0.38804267,0.,0.,-0.07412722,0.,0.,0.02892283,0.,
 0.,0.02181431,0.,0.,0.00634473,0.,0.,0.09593380,-0.11350088,0.04333818
 ,0.,-0.06784989,0.01983630,0.,-0.11831654,0.04479910,0.,0.01474309,-0.
 02231006,0.,-0.22618724,-0.08278568,0.,0.84793649,-0.00815396,0.010177
 56,0.,0.06727822,-0.03730389,0.,0.04149463,-0.27069984,0.,0.01048344,-
 0.00171668,0.,-0.11168808,-0.16975344,0.,-0.11079110,0.56133931,0.,0.,
 0.01563303,0.,0.,0.01924013,0.,0.,-0.06374987,0.,0.,-0.00753764,0.,0.,
 -0.07517735,0.,0.,0.14422558,-0.00190671,0.00081302,0.,0.00039917,-0.0
 0564467,0.,0.00591212,-0.00557057,0.,-0.00038630,0.00091816,0.,-0.0141
 3100,0.01039036,0.,-0.33682502,0.11137685,0.,0.34693774,-0.00666940,-0
 .00180368,0.,0.00074168,-0.00573181,0.,0.03302493,-0.00923205,0.,-0.00
 039911,-0.00095410,0.,-0.02232821,0.01128183,0.,0.10791325,-0.09204303
 ,0.,-0.11228315,0.09848284,0.,0.,0.00875725,0.,0.,0.00539920,0.,0.,-0.
 00142760,0.,0.,-0.00068086,0.,0.,-0.00371110,0.,0.,-0.03263387,0.,0.,0
 .02429698\\-0.00024380,0.00030518,0.,0.00018355,-0.00014711,0.,-0.0001
 8095,-0.00006094,0.,-0.00001429,0.00001364,0.,0.00055004,0.00003509,0.
 ,-0.00030284,-0.00012178,0.,0.00000830,-0.00002407,0.\\\@

 IF I HAVE SEEN FARTHER, IT IS BY STANDING ON THE
 SHOULDERS OF GIANTS. -- SIR ISAAC NEWTON
 Job cpu time:  0 days  0 hours  6 minutes 37.5 seconds.
 File lengths (MBytes):  RWF=  208 Int=    0 D2E=    0 Chk=    3 Scr=    1
 Normal termination of Gaussian 98.
