 Gaussian 09, Revision A.02,
 Gaussian 09:  AM64L-G09RevA.02 11-Jun-2009

 ------------------
 #MP2/TZVP opt freq
 ------------------

 ----------------------------------------------------------
 1H tetrazole c CH-NH-N=N-N= casno=288948 method=3 basis=32
 ----------------------------------------------------------
 Symbolic Z-matrix:
 Charge =  0 Multiplicity = 1

 SCF Done:  E(RHF) =  -256.833825228     A.U. after   15 cycles
 E2 =    -0.8219405365D+00 EUMP2 =    -0.25765576576429D+03
 SCF Done:  E(RHF) =  -256.828505908     A.U. after   13 cycles
 E2 =    -0.8324453143D+00 EUMP2 =    -0.25766095122268D+03
 SCF Done:  E(RHF) =  -256.826168247     A.U. after   12 cycles
 E2 =    -0.8350941820D+00 EUMP2 =    -0.25766126242896D+03
 SCF Done:  E(RHF) =  -256.825476141     A.U. after   12 cycles
 E2 =    -0.8358381239D+00 EUMP2 =    -0.25766131426464D+03
 SCF Done:  E(RHF) =  -256.825529306     A.U. after   10 cycles
 E2 =    -0.8358055764D+00 EUMP2 =    -0.25766133488222D+03
 SCF Done:  E(RHF) =  -256.825701134     A.U. after   11 cycles
 E2 =    -0.8356386944D+00 EUMP2 =    -0.25766133982823D+03
 Optimization completed.
    -- Stationary point found.
 Normal termination of Gaussian 09 at Fri Feb  4 17:03:03 2011.

 ------------------------------------------------------------------
 #N Geom=AllCheck Guess=TCheck SCRF=Check GenChk RMP2(FC)/TZVP Freq
 ------------------------------------------------------------------

 1H tetrazole c CH-NH-N=N-N= casno=288948 method=3 basis=32
 ----------------------------------------------------------
 Redundant internal coordinates taken from checkpoint file:
 /gaussian/Gau-7678.chk
 Charge =  0 Multiplicity = 1

                         Standard orientation:
 ---------------------------------------------------------------------
 Center     Atomic      Atomic             Coordinates (Angstroms)
 Number     Number       Type             X           Y           Z
 ---------------------------------------------------------------------
      1          7           0       -0.720938   -0.935968    0.000000
      2          7           0       -1.122942    0.314695    0.000000
      3          7           0        0.000000    1.053720    0.000000
      4          1           0       -0.058438    2.061019    0.000000
      5          7           0        0.638020   -1.010733    0.000000
      6          6           0        1.067920    0.237247    0.000000
      7          1           0        2.091938    0.563502    0.000000
 ---------------------------------------------------------------------

 SCF Done:  E(RHF) =  -256.825701134     A.U. after    1 cycles
 E2 =    -0.8356386933D+00 EUMP2 =    -0.25766133982719D+03
 E2 =    -0.8356386933D+00 EUMP2 =    -0.25766133982719D+03

 The electronic state is 1-A'.
 Alpha  occ. eigenvalues --  -15.68976 -15.66863 -15.65225 -15.61027 -11.34207
 Alpha  occ. eigenvalues --   -1.49486  -1.26261  -1.19310  -0.91323  -0.89376
 Alpha  occ. eigenvalues --   -0.80278  -0.67996  -0.67658  -0.57003  -0.48697
 Alpha  occ. eigenvalues --   -0.47453  -0.45909  -0.41761
 Alpha virt. eigenvalues --    0.11084   0.11922   0.16517   0.16701   0.22182
 Alpha virt. eigenvalues --    0.23598   0.32816   0.33170   0.37831   0.40290
 Alpha virt. eigenvalues --    0.44076   0.47224   0.48870   0.49405   0.51461

 Mulliken atomic charges:
              1
     1  N   -0.062224
     2  N   -0.080362
     3  N   -0.107598
     4  H    0.275733
     5  N   -0.094025
     6  C   -0.075888
     7  H    0.144364
 Sum of Mulliken atomic charges =   0.00000

 Dipole moment (field-independent basis, Debye):
    X=              2.7729    Y=              5.1032    Z=              0.0000  Tot=              5.8079
 Quadrupole moment (field-independent basis, Debye-Ang):
   XX=            -29.2250   YY=            -26.8861   ZZ=            -29.0384
   XY=              2.1446   XZ=              0.0000   YZ=              0.0000

  Exact polarizability:  41.732   1.067  40.439   0.000   0.000  21.930
 Approx polarizability:  39.636  -0.204  41.864   0.000   0.000  22.288

                     1                      2                      3
                    A"                     A"                     A"
 Frequencies --   496.7830               682.0926               711.6183
 Red. masses --     2.3876                 2.2619                 4.0194
 Frc consts  --     0.3472                 0.6200                 1.1992
 IR Inten    --    52.8798                13.1186                13.1309

                     4                      5                      6
                    A"                     A'                     A'
 Frequencies --   781.5939               960.4271              1003.7277
 Red. masses --     1.2193                 4.9557                 6.5694
 Frc consts  --     0.4389                 2.6933                 3.8995
 IR Inten    --    42.8612                 2.8439                 1.4027

                     7                      8                      9
                    A'                     A'                     A'
 Frequencies --  1068.7999              1098.6344              1150.0130
 Red. masses --     6.2495                 3.3068                 2.9300
 Frc consts  --     4.2062                 2.3516                 2.2831
 IR Inten    --    29.6866                15.8248                14.8643

                    10                     11                     12
                    A'                     A'                     A'
 Frequencies --  1189.3050              1267.6968              1482.5147
 Red. masses --     3.0943                 2.7432                 2.7212
 Frc consts  --     2.5787                 2.5974                 3.5237
 IR Inten    --     2.9857                 2.4999                21.6506

                    13                     14                     15
                    A'                     A'                     A'
 Frequencies --  1488.1676              3342.4624              3675.2274
 Red. masses --     3.3120                 1.1007                 1.0845
 Frc consts  --     4.3216                 7.2455                 8.6308
 IR Inten    --    13.0116                 3.1380               117.8246

 - Thermochemistry -
 -------------------
 Temperature   298.150 Kelvin.  Pressure   1.00000 Atm.
 Atom     1 has atomic number  7 and mass  14.00307

 Molecular mass:    70.02795 amu.
 Principal axes and moments of inertia in atomic units:
                           1         2         3
     Eigenvalues --   172.06832 175.62459 347.69290
           X           -0.70369   0.71051   0.00000
           Y            0.71051   0.70369   0.00000
           Z            0.00000   0.00000   1.00000
 This molecule is an asymmetric top.
 Rotational symmetry number  1.
 Rotational temperatures (Kelvin)      0.50337     0.49318     0.24911
 Rotational constants (GHZ):          10.48852    10.27613     5.19062
 Zero-point vibrational energy     122013.5 (Joules/Mol)
                                   29.16193 (Kcal/Mol)
 Warning -- explicit consideration of   1 degrees of freedom as
           vibrations may cause significant error
 Vibrational temperatures:    714.76   981.38  1023.86  1124.54  1381.84
          (Kelvin)           1444.14  1537.76  1580.69  1654.61  1711.14
                             1823.93  2133.01  2141.14  4809.05  5287.83

 Zero-point correction=                           0.046472 (Hartree/Particle)
 Thermal correction to Energy=                    0.050037
 Thermal correction to Enthalpy=                  0.050981
 Thermal correction to Gibbs Free Energy=         0.020327
 Sum of electronic and zero-point Energies=           -257.614867
 Sum of electronic and thermal Energies=              -257.611303
 Sum of electronic and thermal Enthalpies=            -257.610358
 Sum of electronic and thermal Free Energies=         -257.641013

                     E (Thermal)             CV                S
                      KCal/Mol        Cal/Mol-Kelvin    Cal/Mol-Kelvin
 Total                   31.399             11.730             64.518
 Electronic               0.000              0.000              0.000
 Translational            0.889              2.981             38.656
 Rotational               0.889              2.981             23.867
 Vibrational             29.621              5.769              1.995
 Vibration     1          0.852              1.257              0.666

 Optimization completed.
    -- Stationary point found.
 Normal termination of Gaussian 09 at Fri Feb  4 17:13:13 2011.
