 Gaussian 98, Revision A.4,
 Gaussian 98:  IBM-RS6000-G98RevA.4 11-Sep-1998

 ----------------------
 #MP2/6-31+G** opt freq
 ----------------------

 ----------------------------------------
 1H tetrazole c CH-NH-N=N-N= casno=288948
 ----------------------------------------
 Symbolic Z-matrix:
 Charge =  0 Multiplicity = 1

 SCF Done:  E(RHF) =  -256.767607569     A.U. after   15 cycles
 E2 =    -0.7933765679D+00 EUMP2 =    -0.25756098413701D+03
 SCF Done:  E(RHF) =  -256.761065440     A.U. after   13 cycles
 E2 =    -0.8074991450D+00 EUMP2 =    -0.25756856458470D+03
 SCF Done:  E(RHF) =  -256.758266742     A.U. after   13 cycles
 E2 =    -0.8106728361D+00 EUMP2 =    -0.25756893957812D+03
 SCF Done:  E(RHF) =  -256.757251367     A.U. after   13 cycles
 E2 =    -0.8117662392D+00 EUMP2 =    -0.25756901760614D+03
 SCF Done:  E(RHF) =  -256.757604609     A.U. after   11 cycles
 E2 =    -0.8114465077D+00 EUMP2 =    -0.25756905111619D+03
 SCF Done:  E(RHF) =  -256.757823591     A.U. after   12 cycles
 E2 =    -0.8112332161D+00 EUMP2 =    -0.25756905680704D+03
 Optimization completed.
    -- Stationary point found.
 Normal termination of Gaussian 98.

 -------------------------------------------------------
 #N Geom=AllCheck Guess=TCheck RMP2(FC)/6-31+G(d,p) Freq
 -------------------------------------------------------

 1H tetrazole c CH-NH-N=N-N= casno=288948
 ----------------------------------------
 Redundant internal coordinates taken from checkpointfile:
 /wrk/rdj3/Gau-14306.chk
 Charge =  0 Multiplicity = 1

                         Standard orientation:
 ---------------------------------------------------------------------
 Center     Atomic     Atomic              Coordinates (Angstroms)
 Number     Number      Type              X           Y           Z
 ---------------------------------------------------------------------
    1          7             0       -0.722691   -0.942342    0.000000
    2          7             0       -1.128327    0.317754    0.000000
    3          7             0        0.000000    1.056867    0.000000
    4          1             0       -0.057822    2.065189    0.000000
    5          7             0        0.639342   -1.014461    0.000000
    6          6             0        1.073601    0.240466    0.000000
    7          1             0        2.097954    0.567283    0.000000
 ---------------------------------------------------------------------

 SCF Done:  E(RHF) =  -256.757823591     A.U. after    1 cycles
 E2 =    -0.8112332159D+00 EUMP2 =    -0.25756905680681D+03

  The electronic state is 1-A'.
 Alpha  occ. eigenvalues --  -15.70127 -15.68015 -15.66446 -15.62264 -11.35061
 Alpha  occ. eigenvalues --   -1.49150  -1.26342  -1.19193  -0.91508  -0.89374
 Alpha  occ. eigenvalues --   -0.80224  -0.68044  -0.67552  -0.57054  -0.48985
 Alpha  occ. eigenvalues --   -0.47590  -0.45982  -0.41669
 Alpha virt. eigenvalues --    0.05109   0.08192   0.08633   0.10070   0.12352
 Alpha virt. eigenvalues --    0.14723   0.16221   0.17201   0.18917   0.20628
 Alpha virt. eigenvalues --    0.22254   0.23521   0.24592   0.27248   0.28866

  Exact polarizability:  44.002   0.725  42.685   0.000   0.000  24.162
 Approx polarizability:  41.056  -0.337  43.178   0.000   0.000  23.743

                     1                      2                      3
                    A"                     A"                     A"
 Frequencies --   570.2120               685.2644               715.2525
 Red. masses --     2.5643                 2.0904                 3.9107
 Frc consts  --     0.4912                 0.5783                 1.1787
 IR Inten    --    58.8971                15.7745                17.6350
 Raman Activ --     0.0000                 0.0000                 0.0000

                     4                      5                      6
                    A"                     A'                     A'
 Frequencies --   803.1869               962.2601              1005.2281
 Red. masses --     1.2401                 4.9195                 6.3191
 Frc consts  --     0.4713                 2.6838                 3.7621
 IR Inten    --    39.5285                 2.6800                 2.0978
 Raman Activ --     0.0000                 0.0000                 0.0000

                     7                      8                      9
                    A'                     A'                     A'
 Frequencies --  1084.9411              1111.7468              1148.8486
 Red. masses --     4.7766                 4.0039                 2.8326
 Frc consts  --     3.3127                 2.9157                 2.2027
 IR Inten    --    32.1345                10.7969                17.1262
 Raman Activ --     0.0000                 0.0000                 0.0000

                    10                     11                     12
                    A'                     A'                     A'
 Frequencies --  1196.4535              1273.2149              1491.7878
 Red. masses --     2.9134                 2.8630                 2.3823
 Frc consts  --     2.4572                 2.7345                 3.1236
 IR Inten    --     2.0655                 1.8718                23.7445
 Raman Activ --     0.0000                 0.0000                 0.0000

                    13                     14                     15
                    A'                     A'                     A'
 Frequencies --  1499.6425              3374.4885              3711.3022
 Red. masses --     4.3624                 1.1006                 1.0847
 Frc consts  --     5.7803                 7.3840                 8.8027
 IR Inten    --    12.6826                 3.5534               121.5649
 Raman Activ --     0.0000                 0.0000                 0.0000

 - Thermochemistry -
 -------------------
 Temperature   298.150 Kelvin.  Pressure   1.00000 Atm.
 Atom  1 has atomic number  7 and mass  14.00307

 Molecular mass:    70.02795 amu.
 Principal axes and moments of inertia in atomic units:
                           1         2         3
     EIGENVALUES --   173.67127 176.99557 350.66683
           X           -0.69068   0.72316   0.00000
           Y            0.72316   0.69068   0.00000
           Z            0.00000   0.00000   1.00000
 THIS MOLECULE IS AN ASYMMETRIC TOP.
 ROTATIONAL SYMMETRY NUMBER  1.
 ROTATIONAL TEMPERATURES (KELVIN)      0.49872     0.48935     0.24700
 ROTATIONAL CONSTANTS (GHZ)           10.39171    10.19653     5.14660
 Zero-point vibrational energy     123417.7 (Joules/Mol)
                                   29.49754 (Kcal/Mol)
 WARNING-- EXPLICIT CONSIDERATION OF   1 DEGREES OF FREEDOM AS
           VIBRATIONS MAY CAUSE SIGNIFICANT ERROR
 VIBRATIONAL TEMPERATURES:    820.40   985.94  1029.08  1155.60  1384.47
          (KELVIN)           1446.29  1560.98  1599.55  1652.93  1721.42
                             1831.86  2146.34  2157.64  4855.11  5339.71

 Zero-point correction=                           0.047007 (Hartree/Particle)
 Thermal correction to Energy=                    0.050509
 Thermal correction to Enthalpy=                  0.051453
 Thermal correction to Gibbs Free Energy=         0.020881
 Sum of electronic and zero-point Energies=           -257.522049
 Sum of electronic and thermal Energies=              -257.518548
 Sum of electronic and thermal Enthalpies=            -257.517604
 Sum of electronic and thermal Free Energies=         -257.548175

                     E (Thermal)             CV                S
                      KCAL/MOL        CAL/MOL-KELVIN    CAL/MOL-KELVIN
 TOTAL                   31.695             11.478             64.344
 ELECTRONIC               0.000              0.000              0.000
 TRANSLATIONAL            0.889              2.981             38.656
 ROTATIONAL               0.889              2.981             23.893
 VIBRATIONAL             29.917              5.516              1.795
 VIBRATION  1             0.926              1.096              0.504
                       Q            LOG10(Q)             LN(Q)
 TOTAL BOT       0.248492D-09         -9.604688        -22.115611
 TOTAL V=0       0.104001D+13         12.017036         27.670248
 VIB (BOT)       0.290270D-21        -21.537197        -49.591229
 VIB (BOT)  1    0.269854D+00         -0.568870         -1.309872
 VIB (V=0)       0.121486D+01          0.084527          0.194630
 VIB (V=0)  1    0.106817D+01          0.028642          0.065950
 ELECTRONIC      0.100000D+01          0.000000          0.000000
 TRANSLATIONAL   0.230339D+08          7.362368         16.952478
 ROTATIONAL      0.371657D+05          4.570142         10.523141
 ***** Axes restored to original set *****
 -------------------------------------------------------------------
 Center     Atomic                   Forces (Hartrees/Bohr)
 Number     Number              X              Y              Z
 -------------------------------------------------------------------
    1          7           0.000277989   -0.000147553    0.000000000
    2          7           0.000147752   -0.000280070    0.000000000
    3          7          -0.000017274    0.000597036    0.000000000
    4          1           0.000076044    0.000070894    0.000000000
    5          7          -0.000546389   -0.000142672    0.000000000
    6          6           0.000090118   -0.000134314    0.000000000
    7          1          -0.000028240    0.000036678    0.000000000
 -------------------------------------------------------------------
 Cartesian Forces:  Max     0.000597036 RMS     0.000208633

 GradGradGradGradGradGradGradGradGradGradGradGradGradGradGradGradGradGrad
 Berny optimization.
 Internal  Forces:  Max     0.000342271 RMS     0.000154321
 Search for a local minimum.
 Step number   1 out of a maximum of  36
 All quantities printed in internal units (Hartrees-Bohrs-Radians)
 Second derivative matrix not updated -- analytic derivatives used.
     Eigenvalues ---    0.00801   0.02379   0.06595   0.07441   0.10367
     Eigenvalues ---    0.10853   0.20435   0.28529   0.34510   0.36948
     Eigenvalues ---    0.40065   0.47688   0.49315   0.54703   0.61032
     Eigenvalues --- 1000.000001000.000001000.000001000.000001000.00000
     Eigenvalues --- 1000.000001000.000001000.000001000.000001000.00000
     Eigenvalues --- 1000.00000
 Angle between quadratic step and forces=  16.00 degrees.
 Linear search not attempted -- first point.
 Iteration  1 RMS(Cart)=  0.00033525 RMS(Int)=  0.00000008
 Iteration  2 RMS(Cart)=  0.00000006 RMS(Int)=  0.00000004
 Variable       Old X    -DE/DX   Delta X   Delta X   Delta X     New X
                                 (Linear)    (Quad)   (Total)
    R1        2.50157   0.00002   0.00000  -0.00015  -0.00015   2.50142
    R2        2.57747  -0.00033   0.00000  -0.00091  -0.00091   2.57657
    R3        2.54897  -0.00013   0.00000  -0.00019  -0.00019   2.54878
    R4        1.90858   0.00010   0.00000   0.00019   0.00019   1.90877
    R5        2.54877   0.00033   0.00000   0.00075   0.00075   2.54952
    R6        2.50944   0.00034   0.00000   0.00058   0.00058   2.51003
    R7        2.03188  -0.00004   0.00000  -0.00009  -0.00009   2.03179
    A1        1.93513   0.00013   0.00000   0.00033   0.00033   1.93546
    A2        1.83928   0.00022   0.00000   0.00045   0.00045   1.83973
    A3        2.09343   0.00017   0.00000   0.00057   0.00057   2.09400
    A4        1.91153  -0.00031   0.00000  -0.00073  -0.00073   1.91080
    A5        2.27822   0.00013   0.00000   0.00016   0.00016   2.27838
    A6        1.85104  -0.00015   0.00000  -0.00025  -0.00025   1.85079
    A7        1.88780   0.00012   0.00000   0.00020   0.00020   1.88800
    A8        2.18261  -0.00008   0.00000  -0.00033  -0.00033   2.18228
    A9        2.21278  -0.00003   0.00000   0.00013   0.00013   2.21291
    D1        0.00000   0.00000   0.00000   0.00000   0.00000   0.00000
    D2        0.00000   0.00000   0.00000   0.00000   0.00000   0.00000
    D3        3.14159   0.00000   0.00000   0.00000   0.00000   3.14159
    D4        0.00000   0.00000   0.00000   0.00000   0.00000   0.00000
    D5        0.00000   0.00000   0.00000   0.00000   0.00000   0.00000
    D6        3.14159   0.00000   0.00000   0.00000   0.00000   3.14159
    D7        3.14159   0.00000   0.00000   0.00000   0.00000   3.14159
    D8        0.00000   0.00000   0.00000   0.00000   0.00000   0.00000
    D9        0.00000   0.00000   0.00000   0.00000   0.00000   0.00000
   D10        3.14159   0.00000   0.00000   0.00000   0.00000   3.14159
         Item               Value     Threshold  Converged?
 Maximum Force            0.000342     0.000450     YES
 RMS     Force            0.000154     0.000300     YES
 Maximum Displacement     0.000783     0.001800     YES
 RMS     Displacement     0.000335     0.001200     YES
 Predicted change in Energy=-6.817068D-07
 Optimization completed.
    -- Stationary point found.
                         ----------------------------
                         !   Optimized Parameters   !
                         ! (Angstroms and Degrees)  !
 ------------------------                            -------------------------
 ! Name  Definition              Value          Derivative Info.             !
 -----------------------------------------------------------------------------
 ! R1    R(1,2)                  1.3238         -DE/DX =    0.               !
 ! R2    R(1,5)                  1.3639         -DE/DX =   -0.0003           !
 ! R3    R(2,3)                  1.3489         -DE/DX =   -0.0001           !
 ! R4    R(3,4)                  1.01           -DE/DX =    0.0001           !
 ! R5    R(3,6)                  1.3488         -DE/DX =    0.0003           !
 ! R6    R(5,6)                  1.3279         -DE/DX =    0.0003           !
 ! R7    R(6,7)                  1.0752         -DE/DX =    0.               !
 ! A1    A(2,1,5)              110.8748         -DE/DX =    0.0001           !
 ! A2    A(1,2,3)              105.3831         -DE/DX =    0.0002           !
 ! A3    A(2,3,4)              119.9449         -DE/DX =    0.0002           !
 ! A4    A(2,3,6)              109.5226         -DE/DX =   -0.0003           !
 ! A5    A(4,3,6)              130.5326         -DE/DX =    0.0001           !
 ! A6    A(1,5,6)              106.0569         -DE/DX =   -0.0002           !
 ! A7    A(3,6,5)              108.1627         -DE/DX =    0.0001           !
 ! A8    A(3,6,7)              125.0543         -DE/DX =   -0.0001           !
 ! A9    A(5,6,7)              126.783          -DE/DX =    0.               !
 ! D1    D(5,1,2,3)              0.             -DE/DX =    0.               !
 ! D2    D(2,1,5,6)              0.             -DE/DX =    0.               !
 ! D3    D(1,2,3,4)            180.             -DE/DX =    0.               !
 ! D4    D(1,2,3,6)              0.             -DE/DX =    0.               !
 ! D5    D(2,3,6,5)              0.             -DE/DX =    0.               !
 ! D6    D(2,3,6,7)            180.             -DE/DX =    0.               !
 ! D7    D(4,3,6,5)            180.             -DE/DX =    0.               !
 ! D8    D(4,3,6,7)              0.             -DE/DX =    0.               !
 ! D9    D(1,5,6,3)              0.             -DE/DX =    0.               !
 ! D10   D(1,5,6,7)            180.             -DE/DX =    0.               !
 -----------------------------------------------------------------------------
 GradGradGradGradGradGradGradGradGradGradGradGradGradGradGradGradGradGrad

 1\1\GINC-AURUM\Freq\RMP2-FC\6-31+G(d,p)\C1H2N4\RDJ3\25-Apr-2000\0\\#N
 GEOM=ALLCHECK GUESS=TCHECK RMP2(FC)/6-31+G(D,P) FREQ\\1H tetrazole c C
 H-NH-N=N-N= casno=288948\\0,1\N,-1.1543353048,-0.2789280797,0.\N,-0.67
 80619603,0.9562022218,0.\N,0.6641151333,0.8221434454,0.\H,1.2527449705
 ,1.6428563692,0.\N,-0.1401198933,-1.1909051452,0.\C,0.9862646689,-0.48
 75704112,0.\H,1.9884811917,-0.8770209982,0.\\Version=IBM-RS6000-G98Rev
 A.4\State=1-A'\HF=-256.7578236\MP2=-257.5690568\RMSD=8.131e-10\RMSF=2.
 086e-04\Dipole=2.0760945,0.8837671,0.\DipoleDeriv=-0.0197894,-0.063686
 7,0.,-0.238864,0.0940516,0.,0.,0.,-0.185215,0.2883457,0.0705223,0.,0.2
 508628,-0.2945502,0.,0.,0.,-0.0990776,-0.4018267,-0.2106704,0.,-0.2351
 887,-0.3342751,0.,0.,0.,-0.1156408,0.239708,0.0587143,0.,0.0471286,0.2
 912336,0.,0.,0.,0.3486352,-0.3096465,0.0881126,0.,0.0559454,-0.3467533
 ,0.,0.,0.,-0.189535,0.1334099,0.0600641,0.,0.1197086,0.4797732,0.,0.,0
 .,0.0476556,0.069799,-0.0030561,0.,0.0004073,0.1105203,0.,0.,0.,0.1931
 776\Polar=44.1905496,-0.4916547,42.4963185,0.,0.,24.1616339\PG=CS [SG(
 C1H2N4)]\NImag=0\\0.52541614,0.04732028,0.41536668,0.,0.,0.11443222,-0
 .12944811,-0.10714380,0.,0.46983180,-0.00929868,-0.23821935,0.,-0.0497
 6799,0.50349836,0.,0.,-0.08785470,0.,0.,0.10462036,-0.09434397,-0.0874
 7625,0.,-0.26390526,0.01752605,0.,0.69800895,-0.03951582,-0.05554505,0
 .,0.07125929,-0.12172015,0.,0.18319996,0.95025422,0.,0.,0.02224466,0.,
 0.,-0.06084892,0.,0.,0.08248236,-0.01028148,-0.00048789,0.,-0.00714942
 ,-0.03316964,0.,-0.20233172,-0.18755319,0.,0.20544483,0.00800237,0.002
 24329,0.,0.00619746,0.01101979,0.,-0.19640672,-0.34758630,0.,0.2031680
 7,0.34240778,0.,0.,0.00850004,0.,0.,-0.01258570,0.,0.,-0.00724334,0.,0
 .,0.01460365,-0.17818277,0.09102592,0.,-0.00256650,0.06713407,0.,-0.01
 335262,-0.09026622,0.,-0.00006372,-0.00027259,0.,0.49780016,0.01640458
 ,-0.13447739,0.,-0.00081603,-0.11099385,0.,-0.00997272,-0.07308773,0.,
 0.00902325,-0.00560666,0.,0.09572327,0.50829888,0.,0.,-0.08414863,0.,0
 .,0.03314805,0.,0.,0.01706599,0.,0.,0.00768532,0.,0.,0.10171047,-0.110
 27473,0.05668921,0.,-0.06656146,0.01207496,0.,-0.13008742,0.06733329,0
 .,0.01481464,-0.02115129,0.,-0.29046840,-0.12223950,0.,0.92470460,-0.0
 1599173,0.01255690,0.,0.07988322,-0.03743242,0.,0.06135786,-0.34750891
 ,0.,0.00919306,-0.00227265,0.,-0.14520855,-0.19874203,0.,-0.10309040,0
 .67411644,0.,0.,0.01814076,0.,0.,0.01646522,0.,0.,-0.04779215,0.,0.,-0
 .01060060,0.,0.,-0.06882060,0.,0.,0.11645640,-0.00288508,0.00007252,0.
 ,-0.00020106,-0.00449877,0.,0.00601204,-0.00445731,0.,-0.00043312,0.00
 046269,0.,-0.01316615,0.01187714,0.,-0.34212723,0.11385654,0.,0.352800
 60,-0.00692101,-0.00192508,0.,0.00038784,-0.00615237,0.,0.03177182,-0.
 00480607,0.,-0.00017367,-0.00020525,0.,-0.01813591,0.01460878,0.,0.110
 38374,-0.10071732,0.,-0.11731282,0.09919731,0.,0.,0.00868564,0.,0.,0.0
 0705569,0.,0.,-0.00590860,0.,0.,-0.00035937,0.,0.,-0.00664059,0.,0.,-0
 .02384904,0.,0.,0.02101627\\-0.00027799,0.00014755,0.,-0.00014775,0.00
 028007,0.,0.00001727,-0.00059704,0.,-0.00007604,-0.00007089,0.,0.00054
 639,0.00014267,0.,-0.00009012,0.00013431,0.,0.00002824,-0.00003668,0.\
 \\@

 THERE IS MUCH PLEASURE TO BE GAINED FROM USELESS KNOWLEDGE

                                       -- BERTRAND RUSSELL
 Job cpu time:  0 days  0 hours 50 minutes 21.7 seconds.
 File lengths (MBytes):  RWF=  784 Int=    0 D2E=    0 Chk=    3 Scr=    1
 Normal termination of Gaussian 98.
