 Gaussian 98, Revision A.6,
 Gaussian 98:  SGI-G98RevA.6 19-Oct-1998

 -------------------
 #MP2/6-31G opt freq
 -------------------

 ----------------------------------------
 1H tetrazole c CH-NH-N=N-N= casno=288948
 ----------------------------------------
 Symbolic Z-matrix:
 Charge =  0 Multiplicity = 1

 SCF Done:  E(RHF) =  -256.588567581     A.U. after   15 cycles
 E2 =    -0.5280749272D+00 EUMP2 =    -0.25711664250822D+03
 SCF Done:  E(RHF) =  -256.582672735     A.U. after   14 cycles
 E2 =    -0.5591176043D+00 EUMP2 =    -0.25714179033971D+03
 SCF Done:  E(RHF) =  -256.571929296     A.U. after   14 cycles
 E2 =    -0.5716488981D+00 EUMP2 =    -0.25714357819439D+03
 SCF Done:  E(RHF) =  -256.570119511     A.U. after   14 cycles
 E2 =    -0.5739447685D+00 EUMP2 =    -0.25714406427954D+03
 SCF Done:  E(RHF) =  -256.571386573     A.U. after   13 cycles
 E2 =    -0.5728076954D+00 EUMP2 =    -0.25714419426884D+03
 SCF Done:  E(RHF) =  -256.571739591     A.U. after   13 cycles
 E2 =    -0.5724727483D+00 EUMP2 =    -0.25714421233935D+03
 SCF Done:  E(RHF) =  -256.571637932     A.U. after   11 cycles
 E2 =    -0.5725779936D+00 EUMP2 =    -0.25714421592528D+03
 SCF Done:  E(RHF) =  -256.571519447     A.U. after   11 cycles
 E2 =    -0.5726983742D+00 EUMP2 =    -0.25714421782166D+03
 Optimization completed.
    -- Stationary point found.
 Normal termination of Gaussian 98.

 -------------------------------------------------
 #N Geom=AllCheck Guess=TCheck RMP2(FC)/6-31G Freq
 -------------------------------------------------

 1H tetrazole c CH-NH-N=N-N= casno=288948
 ----------------------------------------
 Redundant internal coordinates taken from checkpointfile:
 /wrk/Gau-2798437.chk
 Charge =  0 Multiplicity = 1

                         Standard orientation:
 ---------------------------------------------------------------------
 Center     Atomic     Atomic              Coordinates (Angstroms)
 Number     Number      Type              X           Y           Z
 ---------------------------------------------------------------------
    1          7             0       -0.748320   -0.982720    0.000000
    2          7             0       -1.172035    0.317866    0.000000
    3          7             0        0.000000    1.085837    0.000000
    4          1             0       -0.060565    2.095724    0.000000
    5          7             0        0.686971   -1.028228    0.000000
    6          6             0        1.095440    0.260218    0.000000
    7          1             0        2.121616    0.593688    0.000000
 ---------------------------------------------------------------------

 SCF Done:  E(RHF) =  -256.571519447     A.U. after    1 cycles
 E2 =    -0.5726983742D+00 EUMP2 =    -0.25714421782162D+03

  The electronic state is 1-A'.
 Alpha  occ. eigenvalues --  -15.70842 -15.70547 -15.69088 -15.64759 -11.37531
 Alpha  occ. eigenvalues --   -1.48495  -1.25849  -1.20649  -0.91420  -0.89083
 Alpha  occ. eigenvalues --   -0.80288  -0.67054  -0.66557  -0.56342  -0.49361
 Alpha  occ. eigenvalues --   -0.47918  -0.45877  -0.42589
 Alpha virt. eigenvalues --    0.09484   0.14703   0.18776   0.23264   0.32210
 Alpha virt. eigenvalues --    0.33475   0.39406   0.46828   0.57424   0.73590
 Alpha virt. eigenvalues --    0.75921   0.83149   0.88116   0.89431   0.91723

  Exact polarizability:  38.510   1.765  37.242   0.000   0.000  13.859
 Approx polarizability:  40.457  -0.494  44.095   0.000   0.000  11.761

                     1                      2                      3
                    A"                     A"                     A"
 Frequencies --   637.6097               685.5603               704.3393
 Red. masses --     5.0408                 4.7993                 1.2912
 Frc consts  --     1.2074                 1.3290                 0.3774
 IR Inten    --    41.4997                 8.7447                96.8207
 Raman Activ --     0.0000                 0.0000                 0.0000

                     4                      5                      6
                    A'                     A"                     A'
 Frequencies --   764.7303               805.5608               901.3580
 Red. masses --    10.4315                 1.3246                 7.8441
 Frc consts  --     3.5943                 0.5064                 3.7548
 IR Inten    --    13.5875                45.6176                16.3575
 Raman Activ --     0.0000                 0.0000                 0.0000

                     7                      8                      9
                    A'                     A'                     A'
 Frequencies --   947.1504               991.2984              1015.0105
 Red. masses --     5.3084                 9.0143                 8.1034
 Frc consts  --     2.8058                 5.2190                 4.9188
 IR Inten    --     8.2326                 2.6458                 1.6290
 Raman Activ --     0.0000                 0.0000                 0.0000

                    10                     11                     12
                    A'                     A'                     A'
 Frequencies --  1154.5308              1203.5894              1407.8013
 Red. masses --     1.8553                 2.4175                 3.1631
 Frc consts  --     1.4571                 2.0633                 3.6936
 IR Inten    --    11.8999                 9.4612                 5.0288
 Raman Activ --     0.0000                 0.0000                 0.0000

                    13                     14                     15
                    A'                     A'                     A'
 Frequencies --  1454.6246              3348.6250              3683.3525
 Red. masses --     1.6555                 1.1014                 1.0850
 Frc consts  --     2.0639                 7.2767                 8.6729
 IR Inten    --    51.1884                 3.3620               121.3184
 Raman Activ --     0.0000                 0.0000                 0.0000

 - Thermochemistry -
 -------------------
 Temperature   298.150 Kelvin.  Pressure   1.00000 Atm.
 Atom  1 has atomic number  7 and mass  14.00307

 Molecular mass:    70.02795 amu.
 Principal axes and moments of inertia in atomic units:
                           1         2         3
     EIGENVALUES --   184.37960 188.12235 372.50195
           X            0.94404   0.32983   0.00000
           Y           -0.32983   0.94404   0.00000
           Z            0.00000   0.00000   1.00000
 THIS MOLECULE IS AN ASYMMETRIC TOP.
 ROTATIONAL SYMMETRY NUMBER  1.
 ROTATIONAL TEMPERATURES (KELVIN)      0.46976     0.46041     0.23252
 ROTATIONAL CONSTANTS (GHZ)            9.78818     9.59344     4.84492
 Zero-point vibrational energy     117862.9 (Joules/Mol)
                                   28.16992 (Kcal/Mol)
 VIBRATIONAL TEMPERATURES:    917.37   986.36  1013.38  1100.27  1159.02
          (KELVIN)           1296.85  1362.73  1426.25  1460.37  1661.10
                             1731.69  2025.50  2092.87  4817.90  5299.49

 Zero-point correction=                           0.044892 (Hartree/Particle)
 Thermal correction to Energy=                    0.048482
 Thermal correction to Enthalpy=                  0.049426
 Thermal correction to Gibbs Free Energy=         0.018663
 Sum of electronic and zero-point Energies=           -257.099326
 Sum of electronic and thermal Energies=              -257.095736
 Sum of electronic and thermal Enthalpies=            -257.094792
 Sum of electronic and thermal Free Energies=         -257.125555

                     E (Thermal)             CV                S
                      KCAL/MOL        CAL/MOL-KELVIN    CAL/MOL-KELVIN
 TOTAL                   30.423             12.260             64.745
 ELECTRONIC               0.000              0.000              0.000
 TRANSLATIONAL            0.889              2.981             38.656
 ROTATIONAL               0.889              2.981             24.073
 VIBRATIONAL             28.645              6.298              2.017
                       Q            LOG10(Q)             LN(Q)
 TOTAL BOT       0.260376D-08         -8.584398        -19.766308
 TOTAL V=0       0.115924D+13         12.064174         27.778787
 VIB (BOT)       0.277807D-20        -20.556256        -47.332529
 VIB (V=0)       0.123685D+01          0.092316          0.212565
 ELECTRONIC      0.100000D+01          0.000000          0.000000
 TRANSLATIONAL   0.230339D+08          7.362368         16.952478
 ROTATIONAL      0.406902D+05          4.609490         10.613744
 ***** Axes restored to original set *****
 -------------------------------------------------------------------
 Center     Atomic                   Forces (Hartrees/Bohr)
 Number     Number              X              Y              Z
 -------------------------------------------------------------------
    1          7           0.000193883   -0.000339251    0.000000000
    2          7           0.000106376    0.000110664    0.000000000
    3          7          -0.000130772    0.000339502    0.000000000
    4          1           0.000034125    0.000002355    0.000000000
    5          7          -0.000550085   -0.000013801    0.000000000
    6          6           0.000341901   -0.000132518    0.000000000
    7          1           0.000004572    0.000033048    0.000000000
 -------------------------------------------------------------------
 Cartesian Forces:  Max     0.000550085 RMS     0.000188747

 GradGradGradGradGradGradGradGradGradGradGradGradGradGradGradGradGradGrad
 Berny optimization.
 Internal  Forces:  Max     0.000347416 RMS     0.000114671
 Search for a local minimum.
 Step number   1 out of a maximum of  36
 All quantities printed in internal units (Hartrees-Bohrs-Radians)
 Second derivative matrix not updated -- analytic derivatives used.
     Eigenvalues ---    0.01004   0.02491   0.06874   0.07727   0.10481
     Eigenvalues ---    0.11059   0.12109   0.19097   0.25855   0.31405
     Eigenvalues ---    0.39180   0.42367   0.48167   0.48600   0.59242
     Eigenvalues --- 1000.000001000.000001000.000001000.000001000.00000
     Eigenvalues --- 1000.000001000.000001000.000001000.000001000.00000
     Eigenvalues --- 1000.00000
 Angle between quadratic step and forces=  34.90 degrees.
 Linear search not attempted -- first point.
 Iteration  1 RMS(Cart)=  0.00036457 RMS(Int)=  0.00000010
 Iteration  2 RMS(Cart)=  0.00000009 RMS(Int)=  0.00000004
 Variable       Old X    -DE/DX   Delta X   Delta X   Delta X     New X
                                 (Linear)    (Quad)   (Total)
    R1        2.58489   0.00019   0.00000   0.00116   0.00116   2.58605
    R2        2.71367  -0.00028   0.00000  -0.00219  -0.00219   2.71148
    R3        2.64794  -0.00006   0.00000  -0.00038  -0.00038   2.64756
    R4        1.91184   0.00002   0.00000   0.00006   0.00006   1.91189
    R5        2.59219   0.00027   0.00000   0.00059   0.00059   2.59278
    R6        2.55424   0.00035   0.00000   0.00095   0.00095   2.55519
    R7        2.03901  -0.00001   0.00000  -0.00003  -0.00003   2.03898
    A1        1.91744   0.00010   0.00000   0.00032   0.00032   1.91775
    A2        1.83591   0.00004   0.00000  -0.00029  -0.00029   1.83561
    A3        2.09095   0.00006   0.00000   0.00026   0.00026   2.09121
    A4        1.91568  -0.00008   0.00000   0.00012   0.00012   1.91580
    A5        2.27655   0.00001   0.00000  -0.00037  -0.00037   2.27618
    A6        1.84610  -0.00003   0.00000   0.00045   0.00045   1.84655
    A7        1.90965  -0.00004   0.00000  -0.00059  -0.00059   1.90906
    A8        2.18154  -0.00001   0.00000   0.00001   0.00001   2.18154
    A9        2.19200   0.00005   0.00000   0.00058   0.00058   2.19258
    D1        0.00000   0.00000   0.00000   0.00000   0.00000   0.00000
    D2        0.00000   0.00000   0.00000   0.00000   0.00000   0.00000
    D3        3.14159   0.00000   0.00000   0.00000   0.00000   3.14159
    D4        0.00000   0.00000   0.00000   0.00000   0.00000   0.00000
    D5        0.00000   0.00000   0.00000   0.00000   0.00000   0.00000
    D6        3.14159   0.00000   0.00000   0.00000   0.00000   3.14159
    D7        3.14159   0.00000   0.00000   0.00000   0.00000   3.14159
    D8        0.00000   0.00000   0.00000   0.00000   0.00000   0.00000
    D9        0.00000   0.00000   0.00000   0.00000   0.00000   0.00000
   D10        3.14159   0.00000   0.00000   0.00000   0.00000   3.14159
         Item               Value     Threshold  Converged?
 Maximum Force            0.000347     0.000450     YES
 RMS     Force            0.000115     0.000300     YES
 Maximum Displacement     0.001219     0.001800     YES
 RMS     Displacement     0.000365     0.001200     YES
 Predicted change in Energy=-7.131105D-07
 Optimization completed.
    -- Stationary point found.
                         ----------------------------
                         !   Optimized Parameters   !
                         ! (Angstroms and Degrees)  !
 ------------------------                            -------------------------
 ! Name  Definition              Value          Derivative Info.             !
 -----------------------------------------------------------------------------
 ! R1    R(1,2)                  1.3679         -DE/DX =    0.0002           !
 ! R2    R(1,5)                  1.436          -DE/DX =   -0.0003           !
 ! R3    R(2,3)                  1.4012         -DE/DX =   -0.0001           !
 ! R4    R(3,4)                  1.0117         -DE/DX =    0.               !
 ! R5    R(3,6)                  1.3717         -DE/DX =    0.0003           !
 ! R6    R(5,6)                  1.3516         -DE/DX =    0.0003           !
 ! R7    R(6,7)                  1.079          -DE/DX =    0.               !
 ! A1    A(2,1,5)              109.861          -DE/DX =    0.0001           !
 ! A2    A(1,2,3)              105.1897         -DE/DX =    0.               !
 ! A3    A(2,3,4)              119.8026         -DE/DX =    0.0001           !
 ! A4    A(2,3,6)              109.7605         -DE/DX =   -0.0001           !
 ! A5    A(4,3,6)              130.4369         -DE/DX =    0.               !
 ! A6    A(1,5,6)              105.7739         -DE/DX =    0.               !
 ! A7    A(3,6,5)              109.4149         -DE/DX =    0.               !
 ! A8    A(3,6,7)              124.9928         -DE/DX =    0.               !
 ! A9    A(5,6,7)              125.5922         -DE/DX =    0.0001           !
 ! D1    D(5,1,2,3)              0.             -DE/DX =    0.               !
 ! D2    D(2,1,5,6)              0.             -DE/DX =    0.               !
 ! D3    D(1,2,3,4)            180.             -DE/DX =    0.               !
 ! D4    D(1,2,3,6)              0.             -DE/DX =    0.               !
 ! D5    D(2,3,6,5)              0.             -DE/DX =    0.               !
 ! D6    D(2,3,6,7)            180.             -DE/DX =    0.               !
 ! D7    D(4,3,6,5)            180.             -DE/DX =    0.               !
 ! D8    D(4,3,6,7)              0.             -DE/DX =    0.               !
 ! D9    D(1,5,6,3)              0.             -DE/DX =    0.               !
 ! D10   D(1,5,6,7)            180.             -DE/DX =    0.               !
 -----------------------------------------------------------------------------
 GradGradGradGradGradGradGradGradGradGradGradGradGradGradGradGradGradGrad

 1\1\ NATIONAL INSTITUTE OF STANDARDS AND TECHNOLOGY-AMUR\Freq\RMP2-FC\
 6-31G\C1H2N4\RDJ3\12-Apr-2000\0\\#N GEOM=ALLCHECK GUESS=TCHECK RMP2(FC
 )/6-31G FREQ\\1H tetrazole c CH-NH-N=N-N= casno=288948\\0,1\N,-1.20188
 41907,-0.2849503562,0.\N,-0.7043655985,0.9892293498,0.\N,0.6888293902,
 0.8393787281,0.\H,1.2826592729,1.6584664556,0.\N,-0.1212383596,-1.2306
 433303,0.\C,1.0118781837,-0.4937666327,0.\H,2.016682935,-0.8869673993,
 0.\\Version=SGI-G98RevA.6\State=1-A'\HF=-256.5715194\MP2=-257.1442178\
 RMSD=1.480e-09\RMSF=1.887e-04\Dipole=2.1494052,0.9270442,0.\DipoleDeri
 v=0.128457,0.0383525,0.,-0.2510843,-0.0272732,0.,0.,0.,-0.187328,0.331
 5861,-0.0452079,0.,0.1939021,-0.1921216,0.,0.,0.,-0.0678466,-0.5092666
 ,-0.0983176,0.,-0.2248934,-0.4209411,0.,0.,0.,-0.2481506,0.2511446,0.0
 410351,0.,0.0468779,0.2933316,0.,0.,0.,0.4213019,-0.4194895,0.0481112,
 0.,0.1223414,-0.2329514,0.,0.,0.,-0.1826848,0.1409319,0.0055746,0.,0.1
 140583,0.4539741,0.,0.,0.,0.0606617,0.0766364,0.0104522,0.,-0.001202,0
 .1259817,0.,0.,0.,0.2040464\Polar=39.7305706,-0.2773622,36.0207344,0.,
 0.,13.8586321\PG=CS [SG(C1H2N4)]\NImag=0\\0.40436414,0.06122463,0.2399
 6457,0.,0.,0.10613039,-0.09863281,-0.07373585,0.,0.33853600,0.03539011
 ,-0.12764992,0.,-0.07172407,0.37495692,0.,0.,-0.08311446,0.,0.,0.10070
 766,-0.08855394,-0.07215295,0.,-0.15885807,-0.00044185,0.,0.58748638,-
 0.03649051,-0.05669506,0.,0.05949752,-0.10982941,0.,0.20266305,0.87767
 505,0.,0.,0.02273967,0.,0.,-0.06498062,0.,0.,0.09997641,-0.00935605,0.
 00040553,0.,-0.00534048,-0.03278397,0.,-0.20704918,-0.18793617,0.,0.20
 635055,0.00933790,0.00208666,0.,0.00875714,0.01166727,0.,-0.19580376,-
 0.34244711,0.,0.19868217,0.33649995,0.,0.,0.00748798,0.,0.,-0.00930838
 ,0.,0.,-0.01400556,0.,0.,0.01685878,-0.09424086,0.03618996,0.,-0.00649
 959,0.05689540,0.,-0.01354921,-0.08349440,0.,-0.00020928,0.00026907,0.
 ,0.37320828,-0.05154999,-0.06753701,0.,0.00590485,-0.10421364,0.,-0.01
 469861,-0.06933176,0.,0.00987884,-0.00417239,0.,0.12957516,0.40781580,
 0.,0.,-0.07879942,0.,0.,0.03135309,0.,0.,0.01821092,0.,0.,0.00737267,0
 .,0.,0.09807068,-0.11178970,0.04738655,0.,-0.06911949,0.01847211,0.,-0
 .12782732,0.05080440,0.,0.01598354,-0.02210714,0.,-0.24672804,-0.08947
 858,0.,0.88007005,-0.01143184,0.01200296,0.,0.07103296,-0.03934140,0.,
 0.04884967,-0.29298723,0.,0.01191966,-0.00276490,0.,-0.11893807,-0.175
 35957,0.,-0.11595700,0.59537289,0.,0.,0.01736550,0.,0.,0.01952837,0.,0
 .,-0.05757344,0.,0.,-0.00825392,0.,0.,-0.07090303,0.,0.,0.12464513,-0.
 00179079,0.00068212,0.,-0.00008556,-0.00580773,0.,0.00835134,-0.005043
 89,0.,-0.00037911,0.00086463,0.,-0.01198130,0.01036834,0.,-0.34058903,
 0.11452463,0.,0.34647445,-0.00648031,-0.00217220,0.,0.00026745,-0.0055
 8982,0.,0.03158446,-0.00638448,0.,-0.00016604,-0.00086948,0.,-0.020497
 12,0.01279858,0.,0.11087967,-0.09692274,0.,-0.11558809,0.09914014,0.,0
 .,0.00819033,0.,0.,0.00581433,0.,0.,-0.00436738,0.,0.,-0.00015158,0.,0
 .,-0.00530491,0.,0.,-0.02480862,0.,0.,0.02062782\\-0.00019388,0.000339
 25,0.,-0.00010638,-0.00011066,0.,0.00013077,-0.00033950,0.,-0.00003413
 ,-0.00000235,0.,0.00055009,0.00001380,0.,-0.00034190,0.00013252,0.,-0.
 00000457,-0.00003305,0.\\\@

 WERE I TO AWAIT PERFECTION, MY BOOK WOULD NEVER BE FINISHED.
                                    -- HISTORY OF CHINESE WRITING

                                       TAI T'UNG, 13TH CENTURY
 Job cpu time:  0 days  0 hours  3 minutes 50.8 seconds.
 File lengths (MBytes):  RWF=  208 Int=    0 D2E=    0 Chk=    3 Scr=    1
 Normal termination of Gaussian 98.
