 Gaussian 09, Revision A.02,
 Gaussian 09:  AM64L-G09RevA.02 11-Jun-2009

 -------------
 #PM6 opt freq
 -------------

 ---------------------------------------------------------
 1H tetrazole c CH-NH-N=N-N= casno=288948 method=1 basis=1
 ---------------------------------------------------------
 Symbolic Z-matrix:
 Charge =  0 Multiplicity = 1

 SCF Done:  E(RPM6) =  0.152477582745     A.U. after   14 cycles
 SCF Done:  E(RPM6) =  0.129362520746     A.U. after   12 cycles
 SCF Done:  E(RPM6) =  0.128216812036     A.U. after   12 cycles
 SCF Done:  E(RPM6) =  0.128130842798     A.U. after   11 cycles
 SCF Done:  E(RPM6) =  0.128108309868     A.U. after   11 cycles
 SCF Done:  E(RPM6) =  0.128104811172     A.U. after   10 cycles
 Optimization completed.
    -- Stationary point found.
 Normal termination of Gaussian 09 at Fri Nov  5 06:04:07 2010.

 -------------------------------------------------------------
 #P Geom=AllCheck Guess=TCheck SCRF=Check GenChk RPM6/ZDO Freq
 -------------------------------------------------------------

 1H tetrazole c CH-NH-N=N-N= casno=288948 method=1 basis=1
 ---------------------------------------------------------
 Redundant internal coordinates taken from checkpoint file:
 /gaussian/Gau-31404.chk
 Charge =  0 Multiplicity = 1

                         Standard orientation:
 ---------------------------------------------------------------------
 Center     Atomic      Atomic             Coordinates (Angstroms)
 Number     Number       Type             X           Y           Z
 ---------------------------------------------------------------------
      1          7           0       -0.740555   -0.933517    0.000000
      2          7           0       -1.126198    0.310587    0.000000
      3          7           0        0.000000    1.095257    0.000000
      4          1           0       -0.033704    2.106299    0.000000
      5          7           0        0.611599   -1.040606    0.000000
      6          6           0        1.111825    0.224730    0.000000
      7          1           0        2.148832    0.523282    0.000000
 ---------------------------------------------------------------------

 SCF Done:  E(RPM6) =  0.128104811172     A.U. after    2 cycles

 The electronic state is 1-A'.
 Alpha  occ. eigenvalues --   -1.39988  -1.15719  -1.08428  -0.88219  -0.84185
 Alpha  occ. eigenvalues --   -0.72690  -0.63589  -0.63131  -0.49896  -0.45524
 Alpha  occ. eigenvalues --   -0.44952  -0.43408  -0.43368
 Alpha virt. eigenvalues --   -0.02525   0.01088   0.01476   0.07072   0.08851
 Alpha virt. eigenvalues --    0.10914   0.14897   0.17615   0.20079

 Mulliken atomic charges:
              1
     1  N   -0.019837
     2  N   -0.080349
     3  N   -0.180970
     4  H    0.299776
     5  N   -0.182464
     6  C   -0.052704
     7  H    0.216547
 Sum of Mulliken atomic charges =   0.00000

 Dipole moment (field-independent basis, Debye):
    X=              2.6616    Y=              4.9418    Z=              0.0000  Tot=              5.6130
 N-N= 1.033080568762D+02 E-N=-1.349812040303D+02  KE=-5.211671190234D+01
  Exact polarizability:  39.910   0.604  41.361   0.000   0.000   8.945
 Approx polarizability:  39.237  -0.203  45.419   0.000   0.000   5.687
 Leave Link  601 at Fri Nov  5 06:04:08 2010, MaxMem=   24000000 cpu:       0.0
 (Enter /usr/local/gaussian09-A02-64/g09/l701.exe)
 Compute integral second derivatives.
 ... and contract with generalized density number  0.
 Leave Link  701 at Fri Nov  5 06:04:08 2010, MaxMem=   24000000 cpu:       0.1
 (Enter /usr/local/gaussian09-A02-64/g09/l702.exe)
 L702 exits ... SP integral derivatives will be done elsewhere.

                     1                      2                      3
                    A"                     A"                     A"
 Frequencies --   575.3079               669.1357               696.4638
 Red. masses --     2.7224                 4.2415                 1.5677
 Frc consts  --     0.5309                 1.1189                 0.4480
 IR Inten    --     0.0828                17.4158               134.6689

                     4                      5                      6
                    A"                     A'                     A'
 Frequencies --   889.0553               890.7946               901.2609
 Red. masses --     1.4535                 8.8628                 6.9126
 Frc consts  --     0.6769                 4.1436                 3.3082
 IR Inten    --    47.8125                 6.2715                 2.1627

                     7                      8                      9
                    A'                     A'                     A'
 Frequencies --  1106.0430              1141.2234              1207.1371
 Red. masses --     1.4287                 2.4473                 3.5226
 Frc consts  --     1.0298                 1.8779                 3.0243
 IR Inten    --    22.1466                24.5527                12.4814

                    10                     11                     12
                    A'                     A'                     A'
 Frequencies --  1308.0918              1351.9871              1437.9761
 Red. masses --     2.6743                 5.9134                 9.7397
 Frc consts  --     2.6961                 6.3684                11.8659
 IR Inten    --     6.1680                34.4030                24.5429

                    13                     14                     15
                    A'                     A'                     A'
 Frequencies --  1507.4601              2748.0947              2779.2331
 Red. masses --     5.1243                 1.0802                 1.0772
 Frc consts  --     6.8608                 4.8065                 4.9024
 IR Inten    --     3.9770               212.9858               322.2079

 - Thermochemistry -
 -------------------
 Temperature   298.150 Kelvin.  Pressure   1.00000 Atm.
 Atom     1 has atomic number  7 and mass  14.00307

 Molecular mass:    70.02795 amu.
 Principal axes and moments of inertia in atomic units:
                           1         2         3
     Eigenvalues --   178.81076 181.41823 360.22899
           X           -0.20690   0.97836   0.00000
           Y            0.97836   0.20690   0.00000
           Z            0.00000   0.00000   1.00000
 This molecule is an asymmetric top.
 Rotational symmetry number  1.
 Rotational temperatures (Kelvin)      0.48439     0.47743     0.24044
 Rotational constants (GHZ):          10.09302     9.94796     5.00998
 Zero-point vibrational energy     114896.9 (Joules/Mol)
                                   27.46102 (Kcal/Mol)
 Warning -- explicit consideration of   1 degrees of freedom as
           vibrations may cause significant error
 Vibrational temperatures:    827.74   962.74  1002.05  1279.15  1281.65
          (Kelvin)           1296.71  1591.35  1641.96  1736.80  1882.05
                             1945.21  2068.92  2168.90  3953.89  3998.69

 Zero-point correction=                           0.043762 (Hartree/Particle)
 Thermal correction to Energy=                    0.047267
 Thermal correction to Enthalpy=                  0.048211
 Thermal correction to Gibbs Free Energy=         0.017595
 Sum of electronic and zero-point Energies=              0.171867
 Sum of electronic and thermal Energies=                 0.175372
 Sum of electronic and thermal Enthalpies=               0.176316
 Sum of electronic and thermal Free Energies=            0.145700

                     E (Thermal)             CV                S
                      KCal/Mol        Cal/Mol-Kelvin    Cal/Mol-Kelvin
 Total                   29.661             11.455             64.436
 Electronic               0.000              0.000              0.000
 Translational            0.889              2.981             38.656
 Rotational               0.889              2.981             23.973
 Vibrational             27.883              5.494              1.808
 Vibration     1          0.932              1.085              0.494

 Optimization completed.
    -- Stationary point found.
 Normal termination of Gaussian 09 at Fri Nov  5 06:04:09 2010.
