 Gaussian 03, Revision D.01,
 Gaussian 03:  AM64L-G03RevD.01 13-Oct-2005

 ----------------------
 #LSDA/cc-pVTZ opt freq
 ----------------------

 ---------------------------------------------------------
 1htz 1H-Tetrazole casno=288948 method=51 basis=6 config=1
 ---------------------------------------------------------
 Symbolic Z-matrix:
 Charge =  0 Multiplicity = 1

 SCF Done:  E(RS-VWN) =  -256.985311860     A.U. after   15 cycles
 SCF Done:  E(RS-VWN) =  -256.987416885     A.U. after   12 cycles
 SCF Done:  E(RS-VWN) =  -256.987505172     A.U. after   10 cycles
 SCF Done:  E(RS-VWN) =  -256.987530298     A.U. after   10 cycles
 SCF Done:  E(RS-VWN) =  -256.987539271     A.U. after    9 cycles
 SCF Done:  E(RS-VWN) =  -256.987540555     A.U. after    8 cycles
 Optimization completed.
    -- Stationary point found.
 Normal termination of Gaussian 03 at Fri Mar  7 20:39:07 2008.

 ----------------------------------------------------------------
 #N Geom=AllCheck Guess=Read SCRF=Check GenChk RSVWN/CC-pVTZ Freq
 ----------------------------------------------------------------

 1htz 1H-Tetrazole casno=288948 method=51 basis=6 config=1
 ---------------------------------------------------------
 Redundant internal coordinates taken from checkpoint file:
 /gaussian/Gau-22035.chk
 Charge =  0 Multiplicity = 1

                         Standard orientation:
 ---------------------------------------------------------------------
 Center     Atomic     Atomic              Coordinates (Angstroms)
 Number     Number      Type              X           Y           Z
 ---------------------------------------------------------------------
    1          7             0       -0.716550   -0.919952    0.000000
    2          7             0       -1.109346    0.303234    0.000000
    3          7             0        0.000000    1.044592    0.000000
    4          1             0       -0.060960    2.059871    0.000000
    5          7             0        0.625559   -1.001512    0.000000
    6          6             0        1.061009    0.233077    0.000000
    7          1             0        2.097263    0.557134    0.000000
 ---------------------------------------------------------------------

 SCF Done:  E(RS-VWN) =  -256.987540555     A.U. after    1 cycles

 The electronic state is 1-A'.
 Alpha  occ. eigenvalues --  -13.99989 -13.95936 -13.94307 -13.91752  -9.89426
 Alpha  occ. eigenvalues --   -1.08917  -0.89611  -0.84157  -0.64806  -0.63872
 Alpha  occ. eigenvalues --   -0.57192  -0.48814  -0.47795  -0.35837  -0.33370
 Alpha  occ. eigenvalues --   -0.31138  -0.28563  -0.26598
 Alpha virt. eigenvalues --   -0.08635  -0.05406  -0.02576   0.02231   0.08890
 Alpha virt. eigenvalues --    0.10746   0.11412   0.17967   0.21686   0.22934
 Alpha virt. eigenvalues --    0.29929   0.30145   0.33303   0.35763   0.36116

 Mulliken atomic charges:
              1
     1  N   -0.074613
     2  N   -0.073516
     3  N    0.002847
     4  H    0.184923
     5  N   -0.132766
     6  C   -0.048707
     7  H    0.141833
 Sum of Mulliken charges=   0.00000

 Dipole moment (field-independent basis, Debye):
    X=     2.4591    Y=     4.7270    Z=     0.0000  Tot=     5.3284
 Quadrupole moment (field-independent basis, Debye-Ang):
   XX=   -29.0312   YY=   -26.3191   ZZ=   -28.3742
   XY=     1.7665   XZ=     0.0000   YZ=     0.0000

  Exact polarizability:  42.335   0.962  41.551   0.000   0.000  21.141
 Approx polarizability:  86.721   0.774  90.779   0.000   0.000  37.738

                     1                      2                      3
                    A"                     A"                     A"
 Frequencies --   615.3151               689.3950               744.6892
 Red. masses --     1.6194                 1.9561                 8.8294
 Frc consts  --     0.3612                 0.5477                 2.8849
 IR Inten    --    78.0626                 5.0719                 7.1677

                     4                      5                      6
                    A"                     A'                     A'
 Frequencies --   826.4371               962.2267              1002.4270
 Red. masses --     1.4616                 3.1275                 4.5496
 Frc consts  --     0.5882                 1.7061                 2.6936
 IR Inten    --    18.5396                 5.0589                 2.4053

                     7                      8                      9
                    A'                     A'                     A'
 Frequencies --  1053.7544              1079.0984              1126.4777
 Red. masses --     2.8053                 5.2460                 2.3399
 Frc consts  --     1.8353                 3.5992                 1.7494
 IR Inten    --    33.1698                15.1276                 9.4228

                    10                     11                     12
                    A'                     A'                     A'
 Frequencies --  1231.9707              1284.2197              1429.1475
 Red. masses --     2.4490                10.5610                 3.7423
 Frc consts  --     2.1899                10.2621                 4.5034
 IR Inten    --     6.3062                 8.2373                 6.3263

                    13                     14                     15
                    A'                     A'                     A'
 Frequencies --  1472.2924              3202.8937              3548.3692
 Red. masses --     4.3654                 1.1020                 1.0837
 Frc consts  --     5.5753                 6.6607                 8.0394
 IR Inten    --    12.5345                 4.7841                91.1736

 - Thermochemistry -
 -------------------
 Temperature   298.150 Kelvin.  Pressure   1.00000 Atm.
 Atom  1 has atomic number  7 and mass  14.00307

 Molecular mass:    70.02795 amu.
 Principal axes and moments of inertia in atomic units:
                           1         2         3
     EIGENVALUES --   169.18507 171.48673 340.67180
           X            0.80030   0.59960   0.00000
           Y           -0.59960   0.80030   0.00000
           Z            0.00000   0.00000   1.00000
 This molecule is an asymmetric top.
 Rotational symmetry number  1.
 Rotational temperatures (Kelvin)      0.51195     0.50508     0.25424
 Rotational constants (GHZ):          10.66726    10.52409     5.29759
 Zero-point vibrational energy     121233.8 (Joules/Mol)
                                   28.97558 (Kcal/Mol)
 Warning -- explicit consideration of   1 degrees of freedom as
           vibrations may cause significant error
 Vibrational temperatures:    885.30   991.88  1071.44  1189.06  1384.43
          (Kelvin)           1442.27  1516.12  1552.58  1620.75  1772.53
                             1847.70  2056.22  2118.30  4608.24  5105.31

 Zero-point correction=                           0.046176 (Hartree/Particle)
 Thermal correction to Energy=                    0.049641
 Thermal correction to Enthalpy=                  0.050585
 Thermal correction to Gibbs Free Energy=         0.020108
 Sum of electronic and zero-point Energies=           -256.941365
 Sum of electronic and thermal Energies=              -256.937899
 Sum of electronic and thermal Enthalpies=            -256.936955
 Sum of electronic and thermal Free Energies=         -256.967432

                     E (Thermal)             CV                S
                      KCal/Mol        Cal/Mol-Kelvin    Cal/Mol-Kelvin
 Total                   31.150             11.358             64.145
 Electronic               0.000              0.000              0.000
 Translational            0.889              2.981             38.656
 Rotational               0.889              2.981             23.806
 Vibrational             29.373              5.396              1.682
 Vibration  1             0.975              0.999              0.424

 Optimization completed.
    -- Stationary point found.
 Normal termination of Gaussian 03 at Fri Mar  7 20:53:28 2008.
