 Gaussian 03, Revision D.01,
 Gaussian 03:  AM64L-G03RevD.01 13-Oct-2005

 -----------------------
 #LSDA/6-311G** opt freq
 -----------------------

 ----------------------------------------------------------
 1htz 1H-Tetrazole casno=288948 method=51 basis=21 config=1
 ----------------------------------------------------------
 Symbolic Z-matrix:
 Charge =  0 Multiplicity = 1

 SCF Done:  E(RS-VWN) =  -256.949595409     A.U. after   15 cycles
 SCF Done:  E(RS-VWN) =  -256.952183116     A.U. after   13 cycles
 SCF Done:  E(RS-VWN) =  -256.952268357     A.U. after   10 cycles
 SCF Done:  E(RS-VWN) =  -256.952287904     A.U. after   10 cycles
 SCF Done:  E(RS-VWN) =  -256.952294394     A.U. after    9 cycles
 SCF Done:  E(RS-VWN) =  -256.952295618     A.U. after    9 cycles
 Optimization completed.
    -- Stationary point found.
 Normal termination of Gaussian 03 at Mon Mar 17 13:57:15 2008.

 --------------------------------------------------------------------
 #N Geom=AllCheck Guess=Read SCRF=Check GenChk RSVWN/6-311G(d,p) Freq
 --------------------------------------------------------------------

 1htz 1H-Tetrazole casno=288948 method=51 basis=21 config=1
 ----------------------------------------------------------
 Redundant internal coordinates taken from checkpoint file:
 /gaussian/Gau-2968.chk
 Charge =  0 Multiplicity = 1

                         Standard orientation:
 ---------------------------------------------------------------------
 Center     Atomic     Atomic              Coordinates (Angstroms)
 Number     Number      Type              X           Y           Z
 ---------------------------------------------------------------------
    1          7             0       -0.717162   -0.921156    0.000000
    2          7             0       -1.112581    0.303063    0.000000
    3          7             0        0.000000    1.046944    0.000000
    4          1             0       -0.063138    2.063551    0.000000
    5          7             0        0.627646   -1.002883    0.000000
    6          6             0        1.062922    0.232960    0.000000
    7          1             0        2.100281    0.556908    0.000000
 ---------------------------------------------------------------------

 SCF Done:  E(RS-VWN) =  -256.952295618     A.U. after    1 cycles

 The electronic state is 1-A'.
 Alpha  occ. eigenvalues --  -13.99130 -13.94933 -13.93212 -13.90714  -9.88886
 Alpha  occ. eigenvalues --   -1.09148  -0.89729  -0.84362  -0.64902  -0.63936
 Alpha  occ. eigenvalues --   -0.57297  -0.48675  -0.47895  -0.35655  -0.33271
 Alpha  occ. eigenvalues --   -0.31122  -0.28387  -0.26353
 Alpha virt. eigenvalues --   -0.08585  -0.05201  -0.02313   0.02376   0.10095
 Alpha virt. eigenvalues --    0.12086   0.15858   0.20679   0.25923   0.31964
 Alpha virt. eigenvalues --    0.32428   0.36278   0.41682   0.45725   0.48914

 Mulliken atomic charges:
              1
     1  N   -0.090725
     2  N   -0.026177
     3  N   -0.297961
     4  H    0.275451
     5  N   -0.223598
     6  C    0.190262
     7  H    0.172747
 Sum of Mulliken charges=   0.00000

 Dipole moment (field-independent basis, Debye):
    X=     2.5064    Y=     4.8066    Z=     0.0000  Tot=     5.4208
 Quadrupole moment (field-independent basis, Debye-Ang):
   XX=   -29.0120   YY=   -26.3731   ZZ=   -28.3664
   XY=     1.7536   XZ=     0.0000   YZ=     0.0000

  Exact polarizability:  39.718   1.125  39.084   0.000   0.000  17.999
 Approx polarizability:  82.837   0.669  87.501   0.000   0.000  31.415

                     1                      2                      3
                    A"                     A"                     A"
 Frequencies --   637.9778               693.6103               739.9046
 Red. masses --     2.0971                 1.6090                 7.6522
 Frc consts  --     0.5029                 0.4561                 2.4682
 IR Inten    --    73.1735                19.5834                 9.5122

                     4                      5                      6
                    A"                     A'                     A'
 Frequencies --   824.1826               961.4362              1001.6499
 Red. masses --     1.4342                 3.1206                 4.6083
 Frc consts  --     0.5740                 1.6995                 2.7241
 IR Inten    --    18.9536                 6.4824                 2.3741

                     7                      8                      9
                    A'                     A'                     A'
 Frequencies --  1052.2887              1078.3919              1127.4265
 Red. masses --     3.1401                 4.9590                 2.2914
 Frc consts  --     2.0487                 3.3978                 1.7161
 IR Inten    --    31.4827                17.1302                 9.4926

                    10                     11                     12
                    A'                     A'                     A'
 Frequencies --  1233.9773              1283.0126              1431.1959
 Red. masses --     2.4002                10.7548                 3.8150
 Frc consts  --     2.1533                10.4308                 4.6041
 IR Inten    --     7.2389                10.6064                 6.7863

                    13                     14                     15
                    A'                     A'                     A'
 Frequencies --  1474.7296              3207.7584              3552.8782
 Red. masses --     4.0416                 1.1018                 1.0837
 Frc consts  --     5.1788                 6.6794                 8.0595
 IR Inten    --    13.4173                 5.2807                95.8932

 - Thermochemistry -
 -------------------
 Temperature   298.150 Kelvin.  Pressure   1.00000 Atm.
 Atom  1 has atomic number  7 and mass  14.00307

 Molecular mass:    70.02795 amu.
 Principal axes and moments of inertia in atomic units:
                           1         2         3
     EIGENVALUES --   169.68949 172.27643 341.96592
           X            0.81641   0.57747   0.00000
           Y           -0.57747   0.81641   0.00000
           Z            0.00000   0.00000   1.00000
 This molecule is an asymmetric top.
 Rotational symmetry number  1.
 Rotational temperatures (Kelvin)      0.51043     0.50276     0.25328
 Rotational constants (GHZ):          10.63555    10.47584     5.27755
 Zero-point vibrational energy     121423.5 (Joules/Mol)
                                   29.02091 (Kcal/Mol)
 Vibrational temperatures:    917.91   997.95  1064.56  1185.81  1383.29
          (Kelvin)           1441.15  1514.01  1551.56  1622.11  1775.42
                             1845.97  2059.17  2121.80  4615.24  5111.79

 Zero-point correction=                           0.046248 (Hartree/Particle)
 Thermal correction to Energy=                    0.049703
 Thermal correction to Enthalpy=                  0.050647
 Thermal correction to Gibbs Free Energy=         0.020180
 Sum of electronic and zero-point Energies=           -256.906048
 Sum of electronic and thermal Energies=              -256.902593
 Sum of electronic and thermal Enthalpies=            -256.901649
 Sum of electronic and thermal Free Energies=         -256.932115

                     E (Thermal)             CV                S
                      KCal/Mol        Cal/Mol-Kelvin    Cal/Mol-Kelvin
 Total                   31.189             11.316             64.123
 Electronic               0.000              0.000              0.000
 Translational            0.889              2.981             38.656
 Rotational               0.889              2.981             23.818
 Vibrational             29.411              5.354              1.649

 Optimization completed.
    -- Stationary point found.
 Normal termination of Gaussian 03 at Mon Mar 17 13:58:41 2008.
