 Gaussian 03, Revision D.01,
 Gaussian 03:  AM64L-G03RevD.01 13-Oct-2005

 -----------------------
 #LSDA/6-31+G** opt freq
 -----------------------

 ---------------------------------------------------------
 1htz 1H-Tetrazole casno=288948 method=51 basis=4 config=1
 ---------------------------------------------------------
 Symbolic Z-matrix:
 Charge =  0 Multiplicity = 1

 SCF Done:  E(RS-VWN) =  -256.899554591     A.U. after   12 cycles
 SCF Done:  E(RS-VWN) =  -256.903188415     A.U. after   11 cycles
 SCF Done:  E(RS-VWN) =  -256.903297935     A.U. after   11 cycles
 SCF Done:  E(RS-VWN) =  -256.903335236     A.U. after   11 cycles
 SCF Done:  E(RS-VWN) =  -256.903344580     A.U. after    9 cycles
 SCF Done:  E(RS-VWN) =  -256.903345825     A.U. after    9 cycles
 Optimization completed.
    -- Stationary point found.
 Normal termination of Gaussian 03 at Thu Mar  6 13:52:20 2008.

 --------------------------------------------------------------------
 #N Geom=AllCheck Guess=Read SCRF=Check GenChk RSVWN/6-31+G(d,p) Freq
 --------------------------------------------------------------------

 1htz 1H-Tetrazole casno=288948 method=51 basis=4 config=1
 ---------------------------------------------------------
 Redundant internal coordinates taken from checkpoint file:
 /gaussian/Gau-1460.chk
 Charge =  0 Multiplicity = 1

                         Standard orientation:
 ---------------------------------------------------------------------
 Center     Atomic     Atomic              Coordinates (Angstroms)
 Number     Number      Type              X           Y           Z
 ---------------------------------------------------------------------
    1          7             0       -0.718018   -0.924870    0.000000
    2          7             0       -1.115030    0.304879    0.000000
    3          7             0        0.000000    1.049207    0.000000
    4          1             0       -0.062954    2.067782    0.000000
    5          7             0        0.627070   -1.005899    0.000000
    6          6             0        1.066377    0.235202    0.000000
    7          1             0        2.106546    0.557790    0.000000
 ---------------------------------------------------------------------

 SCF Done:  E(RS-VWN) =  -256.903345825     A.U. after    1 cycles

 The electronic state is 1-A'.
 Alpha  occ. eigenvalues --  -14.02415 -13.98364 -13.96685 -13.94191  -9.91402
 Alpha  occ. eigenvalues --   -1.09475  -0.90304  -0.84793  -0.65446  -0.64367
 Alpha  occ. eigenvalues --   -0.57631  -0.49013  -0.48344  -0.36344  -0.33815
 Alpha  occ. eigenvalues --   -0.31537  -0.29244  -0.27217
 Alpha virt. eigenvalues --   -0.09339  -0.06050  -0.04592  -0.00459   0.01719
 Alpha virt. eigenvalues --    0.02990   0.03873   0.06066   0.07952   0.10145
 Alpha virt. eigenvalues --    0.10568   0.11501   0.12751   0.14363   0.15176

 Mulliken atomic charges:
              1
     1  N   -0.032670
     2  N   -0.045612
     3  N   -0.249986
     4  H    0.353887
     5  N   -0.224066
     6  C   -0.011885
     7  H    0.210331
 Sum of Mulliken charges=   0.00000

 Dipole moment (field-independent basis, Debye):
    X=     2.6497    Y=     4.9374    Z=     0.0000  Tot=     5.6034
 Quadrupole moment (field-independent basis, Debye-Ang):
   XX=   -29.6100   YY=   -26.8475   ZZ=   -28.9513
   XY=     1.8818   XZ=     0.0000   YZ=     0.0000

  Exact polarizability:  45.339   0.479  44.874   0.000   0.000  24.589
 Approx polarizability:  88.388  -0.073  93.042   0.000   0.000  40.251

                     1                      2                      3
                    A"                     A"                     A"
 Frequencies --   602.2723               681.2009               729.5484
 Red. masses --     1.8808                 1.7999                 8.7352
 Frc consts  --     0.4019                 0.4921                 2.7393
 IR Inten    --    78.2870                12.0267                 7.0645

                     4                      5                      6
                    A"                     A'                     A'
 Frequencies --   803.0692               957.3442               995.3007
 Red. masses --     1.3801                 3.5271                 4.6253
 Frc consts  --     0.5244                 1.9046                 2.6996
 IR Inten    --    26.0013                 4.1570                 3.2034

                     7                      8                      9
                    A'                     A'                     A'
 Frequencies --  1061.0364              1098.8167              1128.4680
 Red. masses --     2.6196                 4.9053                 2.2383
 Frc consts  --     1.7376                 3.4895                 1.6794
 IR Inten    --    34.3602                17.9067                 6.2760

                    10                     11                     12
                    A'                     A'                     A'
 Frequencies --  1240.3724              1288.4562              1438.2232
 Red. masses --     2.5120                11.0180                 3.7893
 Frc consts  --     2.2770                10.7769                 4.6181
 IR Inten    --     6.1733                11.6533                 7.2519

                    13                     14                     15
                    A'                     A'                     A'
 Frequencies --  1476.7835              3228.4819              3565.0500
 Red. masses --     4.3697                 1.1019                 1.0842
 Frc consts  --     5.6148                 6.7667                 8.1189
 IR Inten    --    14.1307                 6.0338                98.6071

 - Thermochemistry -
 -------------------
 Temperature   298.150 Kelvin.  Pressure   1.00000 Atm.
 Atom  1 has atomic number  7 and mass  14.00307

 Molecular mass:    70.02795 amu.
 Principal axes and moments of inertia in atomic units:
                           1         2         3
     EIGENVALUES --   170.73444 172.98659 343.72104
           X            0.78454   0.62008   0.00000
           Y           -0.62008   0.78454   0.00000
           Z            0.00000   0.00000   1.00000
 This molecule is an asymmetric top.
 Rotational symmetry number  1.
 Rotational temperatures (Kelvin)      0.50730     0.50070     0.25199
 Rotational constants (GHZ):          10.57046    10.43284     5.25060
 Zero-point vibrational energy     121387.6 (Joules/Mol)
                                   29.01234 (Kcal/Mol)
 Warning -- explicit consideration of   1 degrees of freedom as
           vibrations may cause significant error
 Vibrational temperatures:    866.53   980.10  1049.66  1155.44  1377.40
          (Kelvin)           1432.01  1526.59  1580.95  1623.61  1784.62
                             1853.80  2069.28  2124.76  4645.06  5129.31

 Zero-point correction=                           0.046234 (Hartree/Particle)
 Thermal correction to Energy=                    0.049720
 Thermal correction to Enthalpy=                  0.050664
 Thermal correction to Gibbs Free Energy=         0.020146
 Sum of electronic and zero-point Energies=           -256.857112
 Sum of electronic and thermal Energies=              -256.853626
 Sum of electronic and thermal Enthalpies=            -256.852682
 Sum of electronic and thermal Free Energies=         -256.883200

                     E (Thermal)             CV                S
                      KCal/Mol        Cal/Mol-Kelvin    Cal/Mol-Kelvin
 Total                   31.200             11.443             64.231
 Electronic               0.000              0.000              0.000
 Translational            0.889              2.981             38.656
 Rotational               0.889              2.981             23.833
 Vibrational             29.422              5.481              1.742
 Vibration  1             0.961              1.027              0.446

 Optimization completed.
    -- Stationary point found.
 Normal termination of Gaussian 03 at Thu Mar  6 13:53:45 2008.
