 Gaussian 03, Revision E.01,
 Gaussian 03:  AM64L-G03RevE.01 11-Sep-2007

 ------------------------
 #PBE1PBE/6-31G* opt freq
 ------------------------

 ----------------------------------------------------------
 1H tetrazole c CH-NH-N=N-N= casno=288948 method=54 basis=1
 ----------------------------------------------------------
 Symbolic Z-matrix:
 Charge =  0 Multiplicity = 1

 SCF Done:  E(RPBE+HF-PBE) =  -257.968247594     A.U. after   14 cycles
 SCF Done:  E(RPBE+HF-PBE) =  -257.970836029     A.U. after   12 cycles
 SCF Done:  E(RPBE+HF-PBE) =  -257.970891391     A.U. after   10 cycles
 SCF Done:  E(RPBE+HF-PBE) =  -257.970904024     A.U. after    9 cycles
 SCF Done:  E(RPBE+HF-PBE) =  -257.970906511     A.U. after    9 cycles
 Optimization completed.
    -- Stationary point found.
 Normal termination of Gaussian 03 at Mon Jun 20 07:12:10 2011.

 --------------------------------------------------------------------
 #P Geom=AllCheck Guess=Read SCRF=Check GenChk RPBE1PBE/6-31G(d) Freq
 --------------------------------------------------------------------

 1H tetrazole c CH-NH-N=N-N= casno=288948 method=54 basis=1
 ----------------------------------------------------------
 Redundant internal coordinates taken from checkpoint file:
 /gaussian/Gau-26785.chk
 Charge =  0 Multiplicity = 1

                         Standard orientation:
 ---------------------------------------------------------------------
 Center     Atomic     Atomic              Coordinates (Angstroms)
 Number     Number      Type              X           Y           Z
 ---------------------------------------------------------------------
    1          7             0       -0.719283   -0.920532    0.000000
    2          7             0       -1.113808    0.303408    0.000000
    3          7             0        0.000000    1.048514    0.000000
    4          1             0       -0.061953    2.055832    0.000000
    5          7             0        0.630591   -1.004770    0.000000
    6          6             0        1.064291    0.233205    0.000000
    7          1             0        2.093708    0.558602    0.000000
 ---------------------------------------------------------------------

 SCF Done:  E(RPBE+HF-PBE) =  -257.970906511     A.U. after    1 cycles

 The electronic state is 1-A'.
 Alpha  occ. eigenvalues --  -14.51748 -14.47788 -14.45974 -14.43121 -10.32838
 Alpha  occ. eigenvalues --   -1.18481  -0.98103  -0.92477  -0.70547  -0.69012
 Alpha  occ. eigenvalues --   -0.61890  -0.51960  -0.51775  -0.39705  -0.34779
 Alpha  occ. eigenvalues --   -0.32365  -0.31912  -0.30348
 Alpha virt. eigenvalues --   -0.01230   0.02603   0.06792   0.11987   0.19844
 Alpha virt. eigenvalues --    0.21158   0.29673   0.33580   0.43282   0.53179
 Alpha virt. eigenvalues --    0.53751   0.61050   0.61851   0.66544   0.68485

 Mulliken atomic charges:
              1
     1  N   -0.081367
     2  N   -0.036484
     3  N   -0.446377
     4  H    0.391302
     5  N   -0.310620
     6  C    0.251259
     7  H    0.232287
 Sum of Mulliken charges=   0.00000

 Dipole moment (field-independent basis, Debye):
    X=     2.5126    Y=     4.7906    Z=     0.0000  Tot=     5.4095
 Quadrupole moment (field-independent basis, Debye-Ang):
   XX=   -28.4805   YY=   -25.9164   ZZ=   -28.1920
   XY=     1.7881   XZ=     0.0000   YZ=     0.0000

  Exact polarizability:  37.200   0.945  36.612   0.000   0.000  15.622
 Approx polarizability:  62.185   0.269  65.586   0.000   0.000  23.258

                     1                      2                      3
                    A"                     A"                     A"
 Frequencies --   599.8782               703.3818               753.1418
 Red. masses --     1.7948                 1.9590                 8.0371
 Frc consts  --     0.3805                 0.5710                 2.6860
 IR Inten    --    93.2932                10.3605                 8.8566

                     4                      5                      6
                    A"                     A'                     A'
 Frequencies --   858.6759               995.2488              1029.5847
 Red. masses --     1.3593                 4.3216                 5.4001
 Frc consts  --     0.5905                 2.5220                 3.3727
 IR Inten    --    18.5890                 3.3250                 1.7751

                     7                      8                      9
                    A'                     A'                     A'
 Frequencies --  1100.2747              1115.2910              1170.4117
 Red. masses --     3.0144                 5.0984                 1.9354
 Frc consts  --     2.1501                 3.7365                 1.5621
 IR Inten    --    28.8783                21.5772                10.6674

                    10                     11                     12
                    A'                     A'                     A'
 Frequencies --  1298.7427              1343.1738              1499.2994
 Red. masses --     2.5855                10.4665                 3.4872
 Frc consts  --     2.5695                11.1254                 4.6186
 IR Inten    --     1.5912                17.3756                 8.9120

                    13                     14                     15
                    A'                     A'                     A'
 Frequencies --  1544.5010              3335.1302              3696.7861
 Red. masses --     3.5265                 1.1014                 1.0839
 Frc consts  --     4.9565                 7.2178                 8.7277
 IR Inten    --    17.8915                 1.3293                92.5771

 - Thermochemistry -
 -------------------
 Temperature   298.150 Kelvin.  Pressure   1.00000 Atm.
 Atom  1 has atomic number  7 and mass  14.00307

 Molecular mass:    70.02795 amu.
 Principal axes and moments of inertia in atomic units:
                           1         2         3
     EIGENVALUES --   169.86467 172.80745 342.67212
           X            0.83454   0.55094   0.00000
           Y           -0.55094   0.83454   0.00000
           Z            0.00000   0.00000   1.00000
 This molecule is an asymmetric top.
 Rotational symmetry number  1.
 Rotational temperatures (Kelvin)      0.50990     0.50122     0.25276
 Rotational constants (GHZ):          10.62458    10.44365     5.26667
 Zero-point vibrational energy     125868.2 (Joules/Mol)
                                   30.08322 (Kcal/Mol)
 Warning -- explicit consideration of   1 degrees of freedom as
           vibrations may cause significant error
 Vibrational temperatures:    863.09  1012.01  1083.60  1235.44  1431.94
          (Kelvin)           1481.34  1583.05  1604.65  1683.96  1868.60
                             1932.53  2157.15  2222.19  4798.50  5318.84

 Zero-point correction=                           0.047941 (Hartree/Particle)
 Thermal correction to Energy=                    0.051368
 Thermal correction to Enthalpy=                  0.052312
 Thermal correction to Gibbs Free Energy=         0.021874
 Sum of electronic and zero-point Energies=           -257.922966
 Sum of electronic and thermal Energies=              -257.919539
 Sum of electronic and thermal Enthalpies=            -257.918594
 Sum of electronic and thermal Free Energies=         -257.949033

                     E (Thermal)             CV                S
                      KCal/Mol        Cal/Mol-Kelvin    Cal/Mol-Kelvin
 Total                   32.234             11.023             64.063
 Electronic               0.000              0.000              0.000
 Translational            0.889              2.981             38.656
 Rotational               0.889              2.981             23.824
 Vibrational             30.456              5.061              1.583
 Vibration  1             0.958              1.032              0.450

 Optimization completed.
    -- Stationary point found.
 Normal termination of Gaussian 03 at Mon Jun 20 07:13:12 2011.
