 Gaussian 03, Revision C.02,
 Gaussian 03:  AM64L-G03RevC.02 12-Jun-2004

 ---------------------------
 #B1B95/aug-cc-pVDZ OPT FREQ
 ---------------------------

 -----------------------------------------------------------
 1H tetrazole c CH-NH-N=N-N= casno=288948 method=55 basis=17
 -----------------------------------------------------------
 Symbolic Z-matrix:
 Charge =  0 Multiplicity = 1

 SCF Done:  E(RB+HF-B95) =  -258.205499849     A.U. after   12 cycles
 SCF Done:  E(RB+HF-B95) =  -258.207808554     A.U. after   11 cycles
 SCF Done:  E(RB+HF-B95) =  -258.207867263     A.U. after   10 cycles
 SCF Done:  E(RB+HF-B95) =  -258.207882717     A.U. after    9 cycles
 SCF Done:  E(RB+HF-B95) =  -258.207886027     A.U. after    9 cycles
 Optimization completed.
    -- Stationary point found.
 Normal termination of Gaussian 03 at Fri Sep  8 11:40:08 2006.

 ---------------------------------------------------------------------
 #N Geom=AllCheck Guess=Read SCRF=Check GenChk RB1B95/Aug-CC-pVDZ Freq
 ---------------------------------------------------------------------

 1H tetrazole c CH-NH-N=N-N= casno=288948 method=55 basis=17
 -----------------------------------------------------------
 Redundant internal coordinates taken from checkpoint file:
 /scratch/Gau-23935.chk
 Charge =  0 Multiplicity = 1

                         Standard orientation:
 ---------------------------------------------------------------------
 Center     Atomic     Atomic              Coordinates (Angstroms)
 Number     Number      Type              X           Y           Z
 ---------------------------------------------------------------------
    1          7             0       -0.719144   -0.919375    0.000000
    2          7             0       -1.111663    0.304426    0.000000
    3          7             0        0.000000    1.047952    0.000000
    4          1             0       -0.057644    2.054476    0.000000
    5          7             0        0.629003   -1.005204    0.000000
    6          6             0        1.062787    0.232331    0.000000
    7          1             0        2.093550    0.556944    0.000000
 ---------------------------------------------------------------------

 SCF Done:  E(RB+HF-B95) =  -258.207886027     A.U. after    1 cycles

 The electronic state is 1-A'.
 Alpha  occ. eigenvalues --  -14.57024 -14.53673 -14.52020 -14.49108 -10.37942
 Alpha  occ. eigenvalues --   -1.18942  -0.98658  -0.92984  -0.71018  -0.69616
 Alpha  occ. eigenvalues --   -0.62365  -0.52852  -0.52164  -0.40708  -0.35595
 Alpha  occ. eigenvalues --   -0.33123  -0.33008  -0.31529
 Alpha virt. eigenvalues --   -0.01804  -0.01488   0.01476   0.01490   0.04952
 Alpha virt. eigenvalues --    0.05818   0.07044   0.08371   0.09540   0.10568
 Alpha virt. eigenvalues --    0.11326   0.12652   0.14118   0.15086   0.16283

 Mulliken atomic charges:
              1
     1  N   -0.265088
     2  N   -0.095605
     3  N    0.022651
     4  H   -0.072574
     5  N   -0.285530
     6  C    0.907161
     7  H   -0.211015
 Sum of Mulliken charges=   0.00000

 Dipole moment (field-independent basis, Debye):
    X=     2.5190    Y=     4.7405    Z=     0.0000  Tot=     5.3682
 Quadrupole moment (field-independent basis, Debye-Ang):
   XX=   -28.9964   YY=   -26.4833   ZZ=   -28.6798
   XY=     1.8477   XZ=     0.0000   YZ=     0.0000

  Exact polarizability:  44.982   0.530  44.406   0.000   0.000  25.906
 Approx polarizability:  69.293   0.366  72.286   0.000   0.000  36.634

                     1                      2                      3
                    A"                     A"                     A"
 Frequencies --   616.5673               699.8649               749.6004
 Red. masses --     1.8542                 1.8366                 8.2319
 Frc consts  --     0.4153                 0.5300                 2.7253
 IR Inten    --    75.2773                10.6903                 7.9482

                     4                      5                      6
                    A"                     A'                     A'
 Frequencies --   864.9302               985.0043              1019.7328
 Red. masses --     1.3845                 4.0210                 5.4882
 Frc consts  --     0.6102                 2.2986                 3.3625
 IR Inten    --    17.9475                 2.3869                 1.9808

                     7                      8                      9
                    A'                     A'                     A'
 Frequencies --  1094.4797              1106.1369              1157.3823
 Red. masses --     2.6514                 4.7698                 2.0893
 Frc consts  --     1.8713                 3.4385                 1.6489
 IR Inten    --    30.5865                19.1575                 8.8822

                    10                     11                     12
                    A'                     A'                     A'
 Frequencies --  1290.0999              1336.3789              1491.7388
 Red. masses --     2.6375                10.6558                 3.5171
 Frc consts  --     2.5864                11.2123                 4.6112
 IR Inten    --     1.1910                13.1057                 9.0879

                    13                     14                     15
                    A'                     A'                     A'
 Frequencies --  1535.6532              3316.0728              3686.0520
 Red. masses --     3.8268                 1.1023                 1.0846
 Frc consts  --     5.3170                 7.1415                 8.6821
 IR Inten    --    16.2463                 1.7931                98.4133

 - Thermochemistry -
 -------------------
 Temperature   298.150 Kelvin.  Pressure   1.00000 Atm.
 Atom  1 has atomic number  7 and mass  14.00307

 Molecular mass:    70.02795 amu.
 Principal axes and moments of inertia in atomic units:
                           1         2         3
     EIGENVALUES --   169.57268 172.47438 342.04707
           X            0.79861   0.60185   0.00000
           Y           -0.60185   0.79861   0.00000
           Z            0.00000   0.00000   1.00000
 This molecule is an asymmetric top.
 Rotational symmetry number  1.
 Rotational temperatures (Kelvin)      0.51078     0.50218     0.25322
 Rotational constants (GHZ):          10.64288    10.46382     5.27629
 Zero-point vibrational energy     125307.0 (Joules/Mol)
                                   29.94909 (Kcal/Mol)
 Warning -- explicit consideration of   1 degrees of freedom as
           vibrations may cause significant error
 Vibrational temperatures:    887.10  1006.95  1078.51  1244.44  1417.20
          (Kelvin)           1467.17  1574.71  1591.48  1665.21  1856.16
                             1922.75  2146.28  2209.46  4771.08  5303.40

 Zero-point correction=                           0.047727 (Hartree/Particle)
 Thermal correction to Energy=                    0.051153
 Thermal correction to Enthalpy=                  0.052097
 Thermal correction to Gibbs Free Energy=         0.021665
 Sum of electronic and zero-point Energies=           -258.160159
 Sum of electronic and thermal Energies=              -258.156733
 Sum of electronic and thermal Enthalpies=            -258.155789
 Sum of electronic and thermal Free Energies=         -258.186221

                     E (Thermal)             CV                S
                      KCal/Mol        Cal/Mol-Kelvin    Cal/Mol-Kelvin
 Total                   32.099             11.046             64.049
 Electronic               0.000              0.000              0.000
 Translational            0.889              2.981             38.656
 Rotational               0.889              2.981             23.818
 Vibrational             30.321              5.085              1.575
 Vibration  1             0.976              0.997              0.422

 Optimization completed.
    -- Stationary point found.
 Normal termination of Gaussian 03 at Fri Sep  8 11:50:16 2006.
