 Gaussian 03, Revision C.02,
 Gaussian 03:  AM64L-G03RevC.02 12-Jun-2004

 ----------------------
 #B1B95/6-31G* OPT FREQ
 ----------------------

 ----------------------------------------------------------
 1H tetrazole c CH-NH-N=N-N= casno=288948 method=55 basis=1
 ----------------------------------------------------------
 Symbolic Z-matrix:
 Charge =  0 Multiplicity = 1

 SCF Done:  E(RB+HF-B95) =  -258.160680310     A.U. after   15 cycles
 SCF Done:  E(RB+HF-B95) =  -258.162780087     A.U. after   13 cycles
 SCF Done:  E(RB+HF-B95) =  -258.162831666     A.U. after   10 cycles
 SCF Done:  E(RB+HF-B95) =  -258.162842685     A.U. after    9 cycles
 SCF Done:  E(RB+HF-B95) =  -258.162845457     A.U. after    9 cycles
 Optimization completed.
    -- Stationary point found.
 Normal termination of Gaussian 03 at Fri Mar 10 07:09:37 2006.

 ------------------------------------------------------------------
 #N Geom=AllCheck Guess=Read SCRF=Check GenChk RB1B95/6-31G(d) Freq
 ------------------------------------------------------------------

 1H tetrazole c CH-NH-N=N-N= casno=288948 method=55 basis=1
 ----------------------------------------------------------
 Redundant internal coordinates taken from checkpoint file:
 /scratch/Gau-5801.chk
 Charge =  0 Multiplicity = 1

                         Standard orientation:
 ---------------------------------------------------------------------
 Center     Atomic     Atomic              Coordinates (Angstroms)
 Number     Number      Type              X           Y           Z
 ---------------------------------------------------------------------
    1          7             0       -0.718081   -0.919533    0.000000
    2          7             0       -1.112413    0.302306    0.000000
    3          7             0        0.000000    1.047429    0.000000
    4          1             0       -0.061990    2.053327    0.000000
    5          7             0        0.630245   -1.002743    0.000000
    6          6             0        1.062359    0.232798    0.000000
    7          1             0        2.089572    0.557672    0.000000
 ---------------------------------------------------------------------

 SCF Done:  E(RB+HF-B95) =  -258.162845457     A.U. after    1 cycles

 The electronic state is 1-A'.
 Alpha  occ. eigenvalues --  -14.57056 -14.53270 -14.51439 -14.48508 -10.37675
 Alpha  occ. eigenvalues --   -1.18171  -0.97853  -0.92226  -0.70400  -0.68832
 Alpha  occ. eigenvalues --   -0.61854  -0.52091  -0.51659  -0.39805  -0.34774
 Alpha  occ. eigenvalues --   -0.32382  -0.31969  -0.30414
 Alpha virt. eigenvalues --   -0.00425   0.03446   0.07740   0.12873   0.20701
 Alpha virt. eigenvalues --    0.22067   0.30588   0.34367   0.44103   0.53782
 Alpha virt. eigenvalues --    0.54069   0.61642   0.62303   0.67019   0.68966

 Mulliken atomic charges:
              1
     1  N   -0.082293
     2  N   -0.035109
     3  N   -0.443281
     4  H    0.384607
     5  N   -0.309510
     6  C    0.264279
     7  H    0.221307
 Sum of Mulliken charges=   0.00000

 Dipole moment (field-independent basis, Debye):
    X=     2.4914    Y=     4.7651    Z=     0.0000  Tot=     5.3771
 Quadrupole moment (field-independent basis, Debye-Ang):
   XX=   -28.4072   YY=   -25.8334   ZZ=   -28.0724
   XY=     1.7660   XZ=     0.0000   YZ=     0.0000

  Exact polarizability:  37.009   0.958  36.441   0.000   0.000  15.547
 Approx polarizability:  60.688   0.296  64.027   0.000   0.000  22.919

                     1                      2                      3
                    A"                     A"                     A"
 Frequencies --   601.5089               702.2889               750.2242
 Red. masses --     1.8519                 1.9236                 7.7756
 Frc consts  --     0.3948                 0.5590                 2.5785
 IR Inten    --    90.0681                11.8458                 9.2818

                     4                      5                      6
                    A"                     A'                     A'
 Frequencies --   860.3191               990.1295              1024.3839
 Red. masses --     1.3525                 4.5337                 5.3987
 Frc consts  --     0.5898                 2.6187                 3.3379
 IR Inten    --    17.4430                 3.0485                 1.8873

                     7                      8                      9
                    A'                     A'                     A'
 Frequencies --  1096.3997              1112.6719              1170.3999
 Red. masses --     2.9858                 5.5594                 1.8589
 Frc consts  --     2.1147                 4.0552                 1.5003
 IR Inten    --    30.0601                19.8750                10.9181

                    10                     11                     12
                    A'                     A'                     A'
 Frequencies --  1301.8897              1343.3822              1503.1090
 Red. masses --     2.5018                10.5744                 3.4044
 Frc consts  --     2.4983                11.2436                 4.5318
 IR Inten    --     1.7628                17.3614                 9.7424

                    13                     14                     15
                    A'                     A'                     A'
 Frequencies --  1549.9696              3338.6932              3696.8845
 Red. masses --     3.7417                 1.1014                 1.0840
 Frc consts  --     5.2962                 7.2332                 8.7285
 IR Inten    --    18.1134                 0.9979                92.5383

 - Thermochemistry -
 -------------------
 Temperature   298.150 Kelvin.  Pressure   1.00000 Atm.
 Atom  1 has atomic number  7 and mass  14.00307

 Molecular mass:    70.02795 amu.
 Principal axes and moments of inertia in atomic units:
                           1         2         3
     EIGENVALUES --   169.38991 172.29073 341.68065
           X            0.83516   0.55000   0.00000
           Y           -0.55000   0.83516   0.00000
           Z            0.00000   0.00000   1.00000
 This molecule is an asymmetric top.
 Rotational symmetry number  1.
 Rotational temperatures (Kelvin)      0.51133     0.50272     0.25349
 Rotational constants (GHZ):          10.65436    10.47498     5.28195
 Zero-point vibrational energy     125860.6 (Joules/Mol)
                                   30.08141 (Kcal/Mol)
 Warning -- explicit consideration of   1 degrees of freedom as
           vibrations may cause significant error
 Vibrational temperatures:    865.44  1010.44  1079.40  1237.81  1424.57
          (Kelvin)           1473.86  1577.47  1600.88  1683.94  1873.13
                             1932.83  2162.64  2230.06  4803.63  5318.99

 Zero-point correction=                           0.047938 (Hartree/Particle)
 Thermal correction to Energy=                    0.051367
 Thermal correction to Enthalpy=                  0.052311
 Thermal correction to Gibbs Free Energy=         0.021875
 Sum of electronic and zero-point Energies=           -258.114908
 Sum of electronic and thermal Energies=              -258.111479
 Sum of electronic and thermal Enthalpies=            -258.110534
 Sum of electronic and thermal Free Energies=         -258.140971

                     E (Thermal)             CV                S
                      KCal/Mol        Cal/Mol-Kelvin    Cal/Mol-Kelvin
 Total                   32.233             11.037             64.059
 Electronic               0.000              0.000              0.000
 Translational            0.889              2.981             38.656
 Rotational               0.889              2.981             23.815
 Vibrational             30.456              5.075              1.588
 Vibration  1             0.960              1.029              0.447

 Optimization completed.
    -- Stationary point found.
 Normal termination of Gaussian 03 at Fri Mar 10 07:12:19 2006.
