 Gaussian 09, Revision B.01,
 Gaussian 09:  EM64L-G09RevB.01 12-Aug-2010

 ------------------------
 #B2PLYP/cc-pVTZ opt freq
 ------------------------

 -----------------------------------------------------------------
 1htz 1H-Tetrazole casno=288948 state=1 config=1 method=56 basis=6
 -----------------------------------------------------------------
 Symbolic Z-matrix:
 Charge =  0 Multiplicity = 1

 SCF Done:  E(RB2PLYP) =  -257.838477840     A.U. after   14 cycles
 E2(B2PLYP) =    -0.3189251654D+00 E(B2PLYP) =    -0.25815740300495D+03
 SCF Done:  E(RB2PLYP) =  -257.839146067     A.U. after   10 cycles
 E2(B2PLYP) =    -0.3183636411D+00 E(B2PLYP) =    -0.25815750970852D+03
 SCF Done:  E(RB2PLYP) =  -257.839194579     A.U. after    8 cycles
 E2(B2PLYP) =    -0.3183173544D+00 E(B2PLYP) =    -0.25815751193315D+03
 SCF Done:  E(RB2PLYP) =  -257.839191829     A.U. after    8 cycles
 E2(B2PLYP) =    -0.3183211227D+00 E(B2PLYP) =    -0.25815751295148D+03
 Optimization completed.
    -- Stationary point found.
 Normal termination of Gaussian 09 at Wed Mar  6 12:48:29 2013.

 ----------------------------------------------------------------------
 #N Geom=AllCheck Guess=TCheck SCRF=Check GenChk RB2PLYP(FC)/CC-pVTZ Fr
 eq
 ----------------------------------------------------------------------

 1htz 1H-Tetrazole casno=288948 state=1 config=1 method=56 basis=6
 -----------------------------------------------------------------
 Redundant internal coordinates taken from checkpoint file:
 /tmp/rdj3/g09-12728/Gau-13943.chk
 Charge =  0 Multiplicity = 1

                         Standard orientation:
 ---------------------------------------------------------------------
 Center     Atomic      Atomic             Coordinates (Angstroms)
 Number     Number       Type             X           Y           Z
 ---------------------------------------------------------------------
      1          7           0       -0.722454   -0.926503    0.000000
      2          7           0       -1.119541    0.301905    0.000000
      3          7           0        0.000000    1.053444    0.000000
      4          1           0       -0.059777    2.056960    0.000000
      5          7           0        0.639394   -1.005572    0.000000
      6          6           0        1.065018    0.236215    0.000000
      7          1           0        2.087877    0.562832    0.000000
 ---------------------------------------------------------------------

 SCF Done:  E(RB2PLYP) =  -257.839191829     A.U. after    1 cycles
 E2(B2PLYP) =    -0.3183211244D+00 E(B2PLYP) =    -0.25815751295319D+03
 E2(B2PLYP) =    -0.3183211244D+00 E(B2PLYP) =    -0.25815751295319D+03

 The electronic state is 1-A'.
 Alpha  occ. eigenvalues --  -14.95690 -14.92933 -14.91251 -14.87757 -10.71622
 Alpha  occ. eigenvalues --   -1.29207  -1.07915  -1.02302  -0.77881  -0.76296
 Alpha  occ. eigenvalues --   -0.68603  -0.57750  -0.57740  -0.46393  -0.38885
 Alpha  occ. eigenvalues --   -0.38200  -0.37219  -0.36107
 Alpha virt. eigenvalues --    0.03495   0.05451   0.07468   0.09839   0.19314
 Alpha virt. eigenvalues --    0.21707   0.23814   0.30686   0.33020   0.36148
 Alpha virt. eigenvalues --    0.42277   0.44052   0.45595   0.47588   0.49013

 Mulliken atomic charges:
              1
     1  N   -0.071477
     2  N   -0.079350
     3  N   -0.029999
     4  H    0.199718
     5  N   -0.168634
     6  C   -0.011687
     7  H    0.161431
 Sum of Mulliken atomic charges =   0.00000

 Dipole moment (field-independent basis, Debye):
    X=              2.5252    Y=              4.7927    Z=              0.0000  Tot=              5.4173
 Quadrupole moment (field-independent basis, Debye-Ang):
   XX=            -28.8733   YY=            -26.4276   ZZ=            -28.5230
   XY=              1.9305   XZ=              0.0000   YZ=              0.0000

  Exact polarizability:  41.389   0.897  40.614   0.000   0.000  20.762
 Approx polarizability:  54.091   0.311  56.671   0.000   0.000  27.352

                     1                      2                      3
                    A"                     A"                     A"
 Frequencies --   585.5192               694.3546               741.8217
 Red. masses --     1.6917                 2.0661                 7.9560
 Frc consts  --     0.3417                 0.5869                 2.5795
 IR Inten    --    78.6932                 6.1167                 8.8519

                     4                      5                      6
                    A"                     A'                     A'
 Frequencies --   871.6863               958.5417              1008.5589
 Red. masses --     1.3725                 5.4110                 5.9919
 Frc consts  --     0.6144                 2.9292                 3.5910
 IR Inten    --    18.4682                 4.9186                 0.2958

                     7                      8                      9
                    A'                     A'                     A'
 Frequencies --  1037.0487              1060.1421              1147.6595
 Red. masses --     5.8182                 3.3192                 1.9557
 Frc consts  --     3.6867                 2.1979                 1.5177
 IR Inten    --    13.7313                28.4969                16.6162

                    10                     11                     12
                    A'                     A'                     A'
 Frequencies --  1255.4247              1264.2668              1457.0044
 Red. masses --     3.6031                 4.1108                 3.0143
 Frc consts  --     3.3458                 3.8713                 3.7701
 IR Inten    --    11.7749                 1.7998                 9.6543

                    13                     14                     15
                    A'                     A'                     A'
 Frequencies --  1497.8906              3304.0396              3668.5996
 Red. masses --     3.0740                 1.1007                 1.0840
 Frc consts  --     4.0636                 7.0794                 8.5954
 IR Inten    --    16.2058                 1.5656                96.1590

 - Thermochemistry -
 -------------------
 Temperature   298.150 Kelvin.  Pressure   1.00000 Atm.
 Atom     1 has atomic number  7 and mass  14.00307

 Molecular mass:    70.02795 amu.
 Principal axes and moments of inertia in atomic units:
                           1         2         3
     Eigenvalues --   171.18616 174.09022 345.27638
           X            0.85732   0.51479   0.00000
           Y           -0.51479   0.85732   0.00000
           Z            0.00000   0.00000   1.00000
 This molecule is an asymmetric top.
 Rotational symmetry number  1.
 Rotational temperatures (Kelvin)      0.50596     0.49752     0.25085
 Rotational constants (GHZ):          10.54256    10.36670     5.22695
 Zero-point vibrational energy     122931.6 (Joules/Mol)
                                   29.38136 (Kcal/Mol)
 Warning -- explicit consideration of   1 degrees of freedom as
           vibrations may cause significant error
 Vibrational temperatures:    842.43   999.02  1067.31  1254.16  1379.13
          (Kelvin)           1451.09  1492.08  1525.31  1651.22  1806.27
                             1819.00  2096.30  2155.13  4753.77  5278.29

 Zero-point correction=                           0.046822 (Hartree/Particle)
 Thermal correction to Energy=                    0.050293
 Thermal correction to Enthalpy=                  0.051237
 Thermal correction to Gibbs Free Energy=         0.020732
 Sum of electronic and zero-point Energies=           -258.110691
 Sum of electronic and thermal Energies=              -258.107220
 Sum of electronic and thermal Enthalpies=            -258.106276
 Sum of electronic and thermal Free Energies=         -258.136781

                     E (Thermal)             CV                S
                      KCal/Mol        Cal/Mol-Kelvin    Cal/Mol-Kelvin
 Total                   31.559             11.345             64.204
 Electronic               0.000              0.000              0.000
 Translational            0.889              2.981             38.656
 Rotational               0.889              2.981             23.846
 Vibrational             29.782              5.383              1.701
 Vibration     1          0.943              1.063              0.475

 Optimization completed.
    -- Stationary point found.
 Normal termination of Gaussian 09 at Wed Mar  6 13:01:14 2013.
