 Gaussian 09, Revision A.02,
 Gaussian 09:  AM64L-G09RevA.02 11-Jun-2009

 ---------------------------
 #HSEh1PBE/6-31+G** opt freq
 ---------------------------

 ----------------------------------------------------------
 1H tetrazole c CH-NH-N=N-N= casno=288948 method=57 basis=4
 ----------------------------------------------------------
 Symbolic Z-matrix:
 Charge =  0 Multiplicity = 1

 SCF Done:  E(RHSEH1PBE) =  -258.004845908     A.U. after   12 cycles
 SCF Done:  E(RHSEH1PBE) =  -258.007376371     A.U. after   11 cycles
 SCF Done:  E(RHSEH1PBE) =  -258.007429523     A.U. after   10 cycles
 SCF Done:  E(RHSEH1PBE) =  -258.007447744     A.U. after   10 cycles
 SCF Done:  E(RHSEH1PBE) =  -258.007452251     A.U. after    9 cycles
 Optimization completed.
    -- Stationary point found.
 Normal termination of Gaussian 09 at Sat Jul 31 15:18:17 2010.

 ----------------------------------------------------------------------
 #N Geom=AllCheck Guess=TCheck SCRF=Check GenChk RHSEH1PBE/6-31+G(d,p)
 Freq
 ----------------------------------------------------------------------

 1H tetrazole c CH-NH-N=N-N= casno=288948 method=57 basis=4
 ----------------------------------------------------------
 Redundant internal coordinates taken from checkpoint file:
 /gaussian/Gau-32617.chk
 Charge =  0 Multiplicity = 1

                         Standard orientation:
 ---------------------------------------------------------------------
 Center     Atomic      Atomic             Coordinates (Angstroms)
 Number     Number       Type             X           Y           Z
 ---------------------------------------------------------------------
      1          7           0       -0.719551   -0.920998    0.000000
      2          7           0       -1.112968    0.302827    0.000000
      3          7           0        0.000000    1.049559    0.000000
      4          1           0       -0.060136    2.056261    0.000000
      5          7           0        0.629283   -1.004767    0.000000
      6          6           0        1.064723    0.233591    0.000000
      7          1           0        2.094446    0.555848    0.000000
 ---------------------------------------------------------------------

 SCF Done:  E(RHSEH1PBE) =  -258.007452251     A.U. after    1 cycles

 The electronic state is 1-A'.
 Alpha  occ. eigenvalues --  -14.51218 -14.47508 -14.45740 -14.42918 -10.32268
 Alpha  occ. eigenvalues --   -1.17933  -0.97518  -0.91894  -0.69877  -0.68423
 Alpha  occ. eigenvalues --   -0.61155  -0.51370  -0.51107  -0.39231  -0.34355
 Alpha  occ. eigenvalues --   -0.31889  -0.31533  -0.29979
 Alpha virt. eigenvalues --   -0.04139  -0.01834  -0.00616   0.01948   0.03924
 Alpha virt. eigenvalues --    0.04972   0.06883   0.08750   0.10675   0.12472
 Alpha virt. eigenvalues --    0.13883   0.14802   0.16340   0.17777   0.17994

 Mulliken atomic charges:
              1
     1  N   -0.013050
     2  N   -0.015155
     3  N   -0.292739
     4  H    0.351879
     5  N   -0.250539
     6  C    0.017304
     7  H    0.202300
 Sum of Mulliken atomic charges =   0.00000

 Dipole moment (field-independent basis, Debye):
    X=              2.6378    Y=              4.9237    Z=              0.0000  Tot=              5.5858
 Quadrupole moment (field-independent basis, Debye-Ang):
   XX=            -29.3315   YY=            -26.7342   ZZ=            -28.8179
   XY=              1.9256   XZ=              0.0000   YZ=              0.0000

  Exact polarizability:  43.226   0.387  42.809   0.000   0.000  23.755
 Approx polarizability:  71.758  -0.063  75.708   0.000   0.000  34.665

                     1                      2                      3
                    A"                     A"                     A"
 Frequencies --   601.4773               697.8917               747.0000
 Red. masses --     1.8647                 1.8761                 8.2609
 Frc consts  --     0.3975                 0.5384                 2.7159
 IR Inten    --    85.0972                12.2228                 8.5466

                     4                      5                      6
                    A"                     A'                     A'
 Frequencies --   859.2477               992.0743              1025.9784
 Red. masses --     1.3561                 4.2983                 5.6401
 Frc consts  --     0.5899                 2.4925                 3.4980
 IR Inten    --    22.4235                 3.1183                 1.4717

                     7                      8                      9
                    A'                     A'                     A'
 Frequencies --  1094.5904              1110.1345              1163.1740
 Red. masses --     3.0326                 4.8561                 1.9615
 Frc consts  --     2.1408                 3.5261                 1.5636
 IR Inten    --    26.6659                24.7447                10.9155

                    10                     11                     12
                    A'                     A'                     A'
 Frequencies --  1293.1128              1339.0575              1489.8014
 Red. masses --     2.5603                10.2592                 3.4533
 Frc consts  --     2.5224                10.8383                 4.5158
 IR Inten    --     1.3239                18.3521                 9.5236

                    13                     14                     15
                    A'                     A'                     A'
 Frequencies --  1537.1609              3325.3541              3701.3202
 Red. masses --     3.5564                 1.1016                 1.0843
 Frc consts  --     4.9511                 7.1771                 8.7519
 IR Inten    --    17.4636                 2.6690               106.7069

 - Thermochemistry -
 -------------------
 Temperature   298.150 Kelvin.  Pressure   1.00000 Atm.
 Atom     1 has atomic number  7 and mass  14.00307

 Molecular mass:    70.02795 amu.
 Principal axes and moments of inertia in atomic units:
                           1         2         3
     Eigenvalues --   170.07076 172.63227 342.70303
           X            0.82325   0.56768   0.00000
           Y           -0.56768   0.82325   0.00000
           Z            0.00000   0.00000   1.00000
 This molecule is an asymmetric top.
 Rotational symmetry number  1.
 Rotational temperatures (Kelvin)      0.50928     0.50172     0.25274
 Rotational constants (GHZ):          10.61171    10.45425     5.26620
 Zero-point vibrational energy     125472.6 (Joules/Mol)
                                   29.98866 (Kcal/Mol)
 Warning -- explicit consideration of   1 degrees of freedom as
           vibrations may cause significant error
 Vibrational temperatures:    865.39  1004.11  1074.77  1236.26  1427.37
          (Kelvin)           1476.15  1574.87  1597.23  1673.55  1860.50
                             1926.60  2143.49  2211.63  4784.44  5325.37

 Zero-point correction=                           0.047790 (Hartree/Particle)
 Thermal correction to Energy=                    0.051224
 Thermal correction to Enthalpy=                  0.052168
 Thermal correction to Gibbs Free Energy=         0.021721
 Sum of electronic and zero-point Energies=           -257.959662
 Sum of electronic and thermal Energies=              -257.956228
 Sum of electronic and thermal Enthalpies=            -257.955284
 Sum of electronic and thermal Free Energies=         -257.985731

                     E (Thermal)             CV                S
                      KCal/Mol        Cal/Mol-Kelvin    Cal/Mol-Kelvin
 Total                   32.143             11.070             64.081
 Electronic               0.000              0.000              0.000
 Translational            0.889              2.981             38.656
 Rotational               0.889              2.981             23.824
 Vibrational             30.366              5.109              1.601
 Vibration     1          0.960              1.029              0.447

 Optimization completed.
    -- Stationary point found.
 Normal termination of Gaussian 09 at Sat Jul 31 15:20:32 2010.
