 Gaussian 09, Revision A.02,
 Gaussian 09:  AM64L-G09RevA.02 11-Jun-2009

 ----------------------
 #M062X/6-31G* opt freq
 ----------------------

 ----------------------------------------------------------
 1H tetrazole c CH-NH-N=N-N= casno=288948 method=58 basis=1
 ----------------------------------------------------------
 Symbolic Z-matrix:
 Charge =  0 Multiplicity = 1

 SCF Done:  E(RM062X) =  -258.148394277     A.U. after   16 cycles
 SCF Done:  E(RM062X) =  -258.150845858     A.U. after   14 cycles
 SCF Done:  E(RM062X) =  -258.150878748     A.U. after   10 cycles
 SCF Done:  E(RM062X) =  -258.150886808     A.U. after   10 cycles
 SCF Done:  E(RM062X) =  -258.150888924     A.U. after    9 cycles
 Optimization completed.
    -- Stationary point found.
 Normal termination of Gaussian 09 at Sat Jul 31 12:58:26 2010.

 --------------------------------------------------------------------
 #N Geom=AllCheck Guess=TCheck SCRF=Check GenChk RM062X/6-31G(d) Freq
 --------------------------------------------------------------------

 1H tetrazole c CH-NH-N=N-N= casno=288948 method=58 basis=1
 ----------------------------------------------------------
 Redundant internal coordinates taken from checkpoint file:
 /gaussian/Gau-16231.chk
 Charge =  0 Multiplicity = 1

                         Standard orientation:
 ---------------------------------------------------------------------
 Center     Atomic      Atomic             Coordinates (Angstroms)
 Number     Number       Type             X           Y           Z
 ---------------------------------------------------------------------
      1          7           0       -0.720770   -0.919066    0.000000
      2          7           0       -1.112458    0.302310    0.000000
      3          7           0        0.000000    1.049084    0.000000
      4          1           0       -0.064123    2.056913    0.000000
      5          7           0        0.630283   -1.004177    0.000000
      6          6           0        1.065164    0.231610    0.000000
      7          1           0        2.093759    0.556367    0.000000
 ---------------------------------------------------------------------

 SCF Done:  E(RM062X) =  -258.150888924     A.U. after    1 cycles

 The electronic state is 1-A'.
 Alpha  occ. eigenvalues --  -14.87790 -14.84456 -14.82510 -14.79361 -10.64256
 Alpha  occ. eigenvalues --   -1.27137  -1.05962  -1.00286  -0.76982  -0.75303
 Alpha  occ. eigenvalues --   -0.68030  -0.58279  -0.57068  -0.45817  -0.39477
 Alpha  occ. eigenvalues --   -0.37660  -0.37010  -0.36216
 Alpha virt. eigenvalues --    0.02984   0.07085   0.10160   0.15754   0.24086
 Alpha virt. eigenvalues --    0.24722   0.33952   0.36974   0.48283   0.57138
 Alpha virt. eigenvalues --    0.57362   0.65073   0.65596   0.71211   0.72653

 Mulliken atomic charges:
              1
     1  N   -0.079782
     2  N   -0.034647
     3  N   -0.458182
     4  H    0.395813
     5  N   -0.314869
     6  C    0.260161
     7  H    0.231506
 Sum of Mulliken atomic charges =   0.00000

 Dipole moment (field-independent basis, Debye):
    X=              2.5053    Y=              4.8102    Z=              0.0000  Tot=              5.4235
 Quadrupole moment (field-independent basis, Debye-Ang):
   XX=            -28.5511   YY=            -26.0160   ZZ=            -28.3484
   XY=              1.7882   XZ=              0.0000   YZ=              0.0000

  Exact polarizability:  36.738   0.907  36.232   0.000   0.000  15.465
 Approx polarizability:  51.440   0.357  54.247   0.000   0.000  20.694

                     1                      2                      3
                    A"                     A"                     A"
 Frequencies --   596.8164               703.5309               756.5345
 Red. masses --     1.6588                 2.1199                 8.7055
 Frc consts  --     0.3481                 0.6182                 2.9356
 IR Inten    --   101.9284                 7.6586                 7.8723

                     4                      5                      6
                    A"                     A'                     A'
 Frequencies --   881.3999              1001.8552              1034.4991
 Red. masses --     1.3546                 4.3768                 5.6366
 Frc consts  --     0.6200                 2.5883                 3.5541
 IR Inten    --    16.4155                 2.7896                 1.9568

                     7                      8                      9
                    A'                     A'                     A'
 Frequencies --  1106.4508              1118.5198              1172.3690
 Red. masses --     3.0599                 3.9184                 2.0166
 Frc consts  --     2.2071                 2.8884                 1.6330
 IR Inten    --    24.8801                27.2290                10.2146

                    10                     11                     12
                    A'                     A'                     A'
 Frequencies --  1310.8344              1369.5704              1507.3318
 Red. masses --     2.5822                 9.5375                 3.4706
 Frc consts  --     2.6142                10.5403                 4.6459
 IR Inten    --     1.1569                21.2109                10.3673

                    13                     14                     15
                    A'                     A'                     A'
 Frequencies --  1563.8714              3340.3978              3681.5820
 Red. masses --     3.9889                 1.1020                 1.0846
 Frc consts  --     5.7478                 7.2446                 8.6611
 IR Inten    --    19.4472                 2.3771               118.1150

 - Thermochemistry -
 -------------------
 Temperature   298.150 Kelvin.  Pressure   1.00000 Atm.
 Atom     1 has atomic number  7 and mass  14.00307

 Molecular mass:    70.02795 amu.
 Principal axes and moments of inertia in atomic units:
                           1         2         3
     Eigenvalues --   169.76426 172.73485 342.49910
           X            0.85453   0.51940   0.00000
           Y           -0.51940   0.85453   0.00000
           Z            0.00000   0.00000   1.00000
 This molecule is an asymmetric top.
 Rotational symmetry number  1.
 Rotational temperatures (Kelvin)      0.51020     0.50143     0.25289
 Rotational constants (GHZ):          10.63087    10.44804     5.26933
 Zero-point vibrational energy     126478.6 (Joules/Mol)
                                   30.22910 (Kcal/Mol)
 Warning -- explicit consideration of   1 degrees of freedom as
           vibrations may cause significant error
 Vibrational temperatures:    858.68  1012.22  1088.48  1268.14  1441.44
          (Kelvin)           1488.41  1591.93  1609.30  1686.78  1886.00
                             1970.50  2168.71  2250.06  4806.08  5296.97

 Zero-point correction=                           0.048173 (Hartree/Particle)
 Thermal correction to Energy=                    0.051591
 Thermal correction to Enthalpy=                  0.052535
 Thermal correction to Gibbs Free Energy=         0.022109
 Sum of electronic and zero-point Energies=           -258.102716
 Sum of electronic and thermal Energies=              -258.099298
 Sum of electronic and thermal Enthalpies=            -258.098354
 Sum of electronic and thermal Free Energies=         -258.128780

                     E (Thermal)             CV                S
                      KCal/Mol        Cal/Mol-Kelvin    Cal/Mol-Kelvin
 Total                   32.374             10.945             64.037
 Electronic               0.000              0.000              0.000
 Translational            0.889              2.981             38.656
 Rotational               0.889              2.981             23.822
 Vibrational             30.596              4.984              1.559
 Vibration     1          0.955              1.039              0.455

 Optimization completed.
    -- Stationary point found.
 Normal termination of Gaussian 09 at Sat Jul 31 12:59:44 2010.
