 Gaussian 09, Revision B.01,
 Gaussian 09:  EM64L-G09RevB.01 12-Aug-2010

 ----------------------------
 #B2PLYP=FULL/6-31G* opt freq
 ----------------------------

 -----------------------------------------------------------------
 1htz 1H-Tetrazole casno=288948 state=1 config=1 method=59 basis=1
 -----------------------------------------------------------------
 Symbolic Z-matrix:
 Charge =  0 Multiplicity = 1

 SCF Done:  E(RB2PLYP) =  -257.746211826     A.U. after   14 cycles
 E2(B2PLYP) =    -0.2630377738D+00 E(B2PLYP) =    -0.25800924959988D+03
 SCF Done:  E(RB2PLYP) =  -257.746790502     A.U. after   13 cycles
 E2(B2PLYP) =    -0.2685806328D+00 E(B2PLYP) =    -0.25801537113439D+03
 SCF Done:  E(RB2PLYP) =  -257.746155198     A.U. after   11 cycles
 E2(B2PLYP) =    -0.2693703617D+00 E(B2PLYP) =    -0.25801552555939D+03
 SCF Done:  E(RB2PLYP) =  -257.746043887     A.U. after   10 cycles
 E2(B2PLYP) =    -0.2694970051D+00 E(B2PLYP) =    -0.25801554089254D+03
 SCF Done:  E(RB2PLYP) =  -257.746073517     A.U. after    9 cycles
 E2(B2PLYP) =    -0.2694717677D+00 E(B2PLYP) =    -0.25801554528424D+03
 SCF Done:  E(RB2PLYP) =  -257.746111246     A.U. after    9 cycles
 E2(B2PLYP) =    -0.2694350923D+00 E(B2PLYP) =    -0.25801554633809D+03
 Optimization completed.
    -- Stationary point found.
 Normal termination of Gaussian 09 at Tue Jan 10 13:19:25 2012.

 ----------------------------------------------------------------------
 #N Geom=AllCheck Guess=TCheck SCRF=Check GenChk RB2PLYP-Full/6-31G(d)
 Freq
 ----------------------------------------------------------------------

 1htz 1H-Tetrazole casno=288948 state=1 config=1 method=59 basis=1
 -----------------------------------------------------------------
 Redundant internal coordinates taken from checkpoint file:
 /tmp/rdj3/g09-2194/Gau-3766.chk
 Charge =  0 Multiplicity = 1

                         Standard orientation:
 ---------------------------------------------------------------------
 Center     Atomic      Atomic             Coordinates (Angstroms)
 Number     Number       Type             X           Y           Z
 ---------------------------------------------------------------------
      1          7           0       -0.723161   -0.930960    0.000000
      2          7           0       -1.125472    0.303817    0.000000
      3          7           0        0.000000    1.056196    0.000000
      4          1           0       -0.063605    2.064504    0.000000
      5          7           0        0.642087   -1.008683    0.000000
      6          6           0        1.068979    0.237767    0.000000
      7          1           0        2.095557    0.566305    0.000000
 ---------------------------------------------------------------------

 SCF Done:  E(RB2PLYP) =  -257.746111246     A.U. after    1 cycles
 E2(B2PLYP) =    -0.2694350932D+00 E(B2PLYP) =    -0.25801554633905D+03
 E2(B2PLYP) =    -0.2694350932D+00 E(B2PLYP) =    -0.25801554633905D+03

 The electronic state is 1-A'.
 Alpha  occ. eigenvalues --  -14.97054 -14.94067 -14.92261 -14.88802 -10.72644
 Alpha  occ. eigenvalues --   -1.28723  -1.07608  -1.01975  -0.77637  -0.75906
 Alpha  occ. eigenvalues --   -0.68268  -0.57439  -0.57082  -0.45901  -0.38366
 Alpha  occ. eigenvalues --   -0.37817  -0.36713  -0.35617
 Alpha virt. eigenvalues --    0.04153   0.08465   0.11068   0.16519   0.26012
 Alpha virt. eigenvalues --    0.26793   0.35682   0.39281   0.50330   0.60587
 Alpha virt. eigenvalues --    0.60591   0.68611   0.69243   0.74227   0.76309

 Mulliken atomic charges:
              1
     1  N   -0.076772
     2  N   -0.038293
     3  N   -0.466811
     4  H    0.396039
     5  N   -0.322422
     6  C    0.282009
     7  H    0.226250
 Sum of Mulliken atomic charges =   0.00000

 Dipole moment (field-independent basis, Debye):
    X=              2.5900    Y=              4.8673    Z=              0.0000  Tot=              5.5135
 Quadrupole moment (field-independent basis, Debye-Ang):
   XX=            -28.6134   YY=            -26.1728   ZZ=            -28.4405
   XY=              1.9102   XZ=              0.0000   YZ=              0.0000

  Exact polarizability:  37.464   1.030  36.905   0.000   0.000  15.453
 Approx polarizability:  50.592   0.089  53.587   0.000   0.000  20.155

                     1                      2                      3
                    A"                     A"                     A"
 Frequencies --   572.6973               692.8614               736.2806
 Red. masses --     1.8046                 2.0148                 7.8062
 Frc consts  --     0.3487                 0.5699                 2.4933
 IR Inten    --    91.9887                10.0372                 9.2134

                     4                      5                      6
                    A"                     A'                     A'
 Frequencies --   846.4261               968.0675              1012.1171
 Red. masses --     1.3319                 5.0981                 6.2994
 Frc consts  --     0.5622                 2.8150                 3.8020
 IR Inten    --    19.6086                 4.0076                 0.4349

                     7                      8                      9
                    A'                     A'                     A'
 Frequencies --  1056.4573              1072.5416              1160.1848
 Red. masses --     5.3339                 3.8463                 1.8090
 Frc consts  --     3.5075                 2.6069                 1.4347
 IR Inten    --    14.0598                30.5423                15.0253

                    10                     11                     12
                    A'                     A'                     A'
 Frequencies --  1267.5716              1276.0567              1475.3444
 Red. masses --     4.7537                 3.3058                 3.1376
 Frc consts  --     4.5002                 3.1715                 4.0238
 IR Inten    --    15.0806                 0.8761                10.5802

                    13                     14                     15
                    A'                     A'                     A'
 Frequencies --  1512.8269              3339.3735              3674.1763
 Red. masses --     3.0566                 1.1004                 1.0840
 Frc consts  --     4.1217                 7.2299                 8.6218
 IR Inten    --    19.6957                 1.2156                92.1454

 - Thermochemistry -
 -------------------
 Temperature   298.150 Kelvin.  Pressure   1.00000 Atm.
 Atom     1 has atomic number  7 and mass  14.00307

 Molecular mass:    70.02795 amu.
 Principal axes and moments of inertia in atomic units:
                           1         2         3
     Eigenvalues --   172.34934 175.52544 347.87478
           X            0.85825   0.51322   0.00000
           Y           -0.51322   0.85825   0.00000
           Z            0.00000   0.00000   1.00000
 This molecule is an asymmetric top.
 Rotational symmetry number  1.
 Rotational temperatures (Kelvin)      0.50255     0.49345     0.24898
 Rotational constants (GHZ):          10.47141    10.28194     5.18790
 Zero-point vibrational energy     123592.1 (Joules/Mol)
                                   29.53922 (Kcal/Mol)
 Warning -- explicit consideration of   1 degrees of freedom as
           vibrations may cause significant error
 Vibrational temperatures:    823.98   996.87  1059.34  1217.82  1392.83
          (Kelvin)           1456.21  1520.00  1543.15  1669.25  1823.75
                             1835.96  2122.69  2176.62  4804.61  5286.31

 Zero-point correction=                           0.047074 (Hartree/Particle)
 Thermal correction to Energy=                    0.050551
 Thermal correction to Enthalpy=                  0.051496
 Thermal correction to Gibbs Free Energy=         0.020968
 Sum of electronic and zero-point Energies=           -257.968473
 Sum of electronic and thermal Energies=              -257.964995
 Sum of electronic and thermal Enthalpies=            -257.964051
 Sum of electronic and thermal Free Energies=         -257.994578

                     E (Thermal)             CV                S
                      KCal/Mol        Cal/Mol-Kelvin    Cal/Mol-Kelvin
 Total                   31.722             11.345             64.251
 Electronic               0.000              0.000              0.000
 Translational            0.889              2.981             38.656
 Rotational               0.889              2.981             23.869
 Vibrational             29.944              5.384              1.726
 Vibration     1          0.929              1.090              0.499

 Optimization completed.
    -- Stationary point found.
 Normal termination of Gaussian 09 at Tue Jan 10 13:20:24 2012.
