 Gaussian 09, Revision B.01,
 Gaussian 09:  EM64L-G09RevB.01 12-Aug-2010

 ---------------------------
 #B2PLYP=FULL/3-21G opt freq
 ---------------------------

 -----------------------------------------------------------------
 1htz 1H-Tetrazole casno=288948 state=1 config=1 method=59 basis=2
 -----------------------------------------------------------------
 Symbolic Z-matrix:
 Charge =  0 Multiplicity = 1

 SCF Done:  E(RB2PLYP) =  -256.259440631     A.U. after   14 cycles
 E2(B2PLYP) =    -0.1815470774D+00 E(B2PLYP) =    -0.25644098770793D+03
 SCF Done:  E(RB2PLYP) =  -256.272831138     A.U. after   14 cycles
 E2(B2PLYP) =    -0.1926729031D+00 E(B2PLYP) =    -0.25646550404126D+03
 SCF Done:  E(RB2PLYP) =  -256.270039653     A.U. after   15 cycles
 E2(B2PLYP) =    -0.1978549027D+00 E(B2PLYP) =    -0.25646789455567D+03
 SCF Done:  E(RB2PLYP) =  -256.269518912     A.U. after   13 cycles
 E2(B2PLYP) =    -0.1987198728D+00 E(B2PLYP) =    -0.25646823878480D+03
 SCF Done:  E(RB2PLYP) =  -256.270252430     A.U. after   11 cycles
 E2(B2PLYP) =    -0.1981614922D+00 E(B2PLYP) =    -0.25646841392238D+03
 SCF Done:  E(RB2PLYP) =  -256.270457457     A.U. after   10 cycles
 E2(B2PLYP) =    -0.1979733491D+00 E(B2PLYP) =    -0.25646843080614D+03
 SCF Done:  E(RB2PLYP) =  -256.270500779     A.U. after   10 cycles
 E2(B2PLYP) =    -0.1979341272D+00 E(B2PLYP) =    -0.25646843490660D+03
 SCF Done:  E(RB2PLYP) =  -256.270519354     A.U. after   10 cycles
 E2(B2PLYP) =    -0.1979184618D+00 E(B2PLYP) =    -0.25646843781599D+03
 SCF Done:  E(RB2PLYP) =  -256.270506083     A.U. after   10 cycles
 E2(B2PLYP) =    -0.1979334285D+00 E(B2PLYP) =    -0.25646843951108D+03
 Optimization completed.
    -- Stationary point found.
 Normal termination of Gaussian 09 at Fri Jan 13 13:39:29 2012.

 ----------------------------------------------------------------------
 #N Geom=AllCheck Guess=TCheck SCRF=Check GenChk RB2PLYP-Full/3-21G Fre
 q
 ----------------------------------------------------------------------

 1htz 1H-Tetrazole casno=288948 state=1 config=1 method=59 basis=2
 -----------------------------------------------------------------
 Redundant internal coordinates taken from checkpoint file:
 /tmp/rdj3/g09-1624/Gau-3351.chk
 Charge =  0 Multiplicity = 1

                         Standard orientation:
 ---------------------------------------------------------------------
 Center     Atomic      Atomic             Coordinates (Angstroms)
 Number     Number       Type             X           Y           Z
 ---------------------------------------------------------------------
      1          7           0       -0.747907   -0.978772    0.000000
      2          7           0       -1.180579    0.290621    0.000000
      3          7           0        0.000000    1.091300    0.000000
      4          1           0       -0.068298    2.100702    0.000000
      5          7           0        0.711683   -1.015933    0.000000
      6          6           0        1.081407    0.263475    0.000000
      7          1           0        2.097470    0.607935    0.000000
 ---------------------------------------------------------------------

 SCF Done:  E(RB2PLYP) =  -256.270506083     A.U. after    1 cycles
 E2(B2PLYP) =    -0.1979334281D+00 E(B2PLYP) =    -0.25646843951067D+03
 E2(B2PLYP) =    -0.1979334281D+00 E(B2PLYP) =    -0.25646843951067D+03

 The electronic state is 1-A'.
 Alpha  occ. eigenvalues --  -14.89407 -14.88175 -14.86269 -14.82360 -10.68261
 Alpha  occ. eigenvalues --   -1.27359  -1.06529  -1.03399  -0.76810  -0.75526
 Alpha  occ. eigenvalues --   -0.68416  -0.56286  -0.55682  -0.44780  -0.37812
 Alpha  occ. eigenvalues --   -0.37750  -0.36518  -0.36171
 Alpha virt. eigenvalues --    0.02403   0.07154   0.13488   0.16057   0.23015
 Alpha virt. eigenvalues --    0.26468   0.32776   0.42675   0.47210   0.76803
 Alpha virt. eigenvalues --    0.78804   0.89848   0.93517   1.03180   1.13289

 Mulliken atomic charges:
              1
     1  N   -0.074038
     2  N   -0.025259
     3  N   -0.585520
     4  H    0.388700
     5  N   -0.358855
     6  C    0.365051
     7  H    0.289921
 Sum of Mulliken atomic charges =   0.00000

 Dipole moment (field-independent basis, Debye):
    X=              2.5668    Y=              5.0105    Z=              0.0000  Tot=              5.6297
 Quadrupole moment (field-independent basis, Debye-Ang):
   XX=            -29.1354   YY=            -26.7405   ZZ=            -28.8334
   XY=              2.1756   XZ=              0.0000   YZ=              0.0000

  Exact polarizability:  35.154   1.404  34.895   0.000   0.000  11.234
 Approx polarizability:  51.077  -0.522  57.296   0.000   0.000  11.521

                     1                      2                      3
                    A"                     A"                     A"
 Frequencies --   616.4999               672.2080               677.4678
 Red. masses --     2.5780                 1.4495                 7.6248
 Frc consts  --     0.5773                 0.3859                 2.0618
 IR Inten    --    96.7442                49.8096                14.3874

                     4                      5                      6
                    A'                     A'                     A"
 Frequencies --   736.0957               834.2164               915.7275
 Red. masses --    10.6779                 6.7561                 1.3733
 Frc consts  --     3.4088                 2.7701                 0.6785
 IR Inten    --    11.1212                15.5878                17.2571

                     7                      8                      9
                    A'                     A'                     A'
 Frequencies --   956.0122               999.7872              1021.6208
 Red. masses --     4.7340                 7.4911                12.0871
 Frc consts  --     2.5492                 4.4118                 7.4328
 IR Inten    --     8.2687                 6.4521                 0.0209

                    10                     11                     12
                    A'                     A'                     A'
 Frequencies --  1135.0973              1208.1452              1356.2317
 Red. masses --     2.1322                 2.1932                 2.4120
 Frc consts  --     1.6187                 1.8861                 2.6140
 IR Inten    --    11.7704                10.6033                 4.7897

                    13                     14                     15
                    A'                     A'                     A'
 Frequencies --  1427.1680              3343.3127              3603.8865
 Red. masses --     1.9673                 1.0988                 1.0847
 Frc consts  --     2.3608                 7.2365                 8.3007
 IR Inten    --    42.8330                 2.2877               104.8552

 - Thermochemistry -
 -------------------
 Temperature   298.150 Kelvin.  Pressure   1.00000 Atm.
 Atom     1 has atomic number  7 and mass  14.00307

 Molecular mass:    70.02795 amu.
 Principal axes and moments of inertia in atomic units:
                           1         2         3
     Eigenvalues --   183.02742 188.83792 371.86534
           X            0.99259   0.12148   0.00000
           Y           -0.12148   0.99259   0.00000
           Z            0.00000   0.00000   1.00000
 This molecule is an asymmetric top.
 Rotational symmetry number  1.
 Rotational temperatures (Kelvin)      0.47323     0.45867     0.23292
 Rotational constants (GHZ):           9.86050     9.55709     4.85321
 Zero-point vibrational energy     116656.7 (Joules/Mol)
                                   27.88162 (Kcal/Mol)
 Warning -- explicit consideration of   1 degrees of freedom as
           vibrations may cause significant error
 Vibrational temperatures:    887.00   967.16   974.72  1059.08  1200.25
          (Kelvin)           1317.53  1375.49  1438.47  1469.88  1633.15
                             1738.25  1951.31  2053.37  4810.28  5185.18

 Zero-point correction=                           0.044432 (Hartree/Particle)
 Thermal correction to Energy=                    0.048049
 Thermal correction to Enthalpy=                  0.048993
 Thermal correction to Gibbs Free Energy=         0.018195
 Sum of electronic and zero-point Energies=           -256.424007
 Sum of electronic and thermal Energies=              -256.420390
 Sum of electronic and thermal Enthalpies=            -256.419446
 Sum of electronic and thermal Free Energies=         -256.450245

                     E (Thermal)             CV                S
                      KCal/Mol        Cal/Mol-Kelvin    Cal/Mol-Kelvin
 Total                   30.151             12.381             64.821
 Electronic               0.000              0.000              0.000
 Translational            0.889              2.981             38.656
 Rotational               0.889              2.981             24.067
 Vibrational             28.374              6.420              2.098
 Vibration     1          0.976              0.997              0.422

 Optimization completed.
    -- Stationary point found.
 Normal termination of Gaussian 09 at Fri Jan 13 13:39:43 2012.
