 Gaussian 09, Revision B.01,
 Gaussian 09:  EM64L-G09RevB.01 12-Aug-2010

 ------------------------------
 #B2PLYP=FULL/6-31+G** opt freq
 ------------------------------

 -----------------------------------------------------------------
 1htz 1H-Tetrazole casno=288948 state=1 config=1 method=59 basis=4
 -----------------------------------------------------------------
 Symbolic Z-matrix:
 Charge =  0 Multiplicity = 1

 SCF Done:  E(RB2PLYP) =  -257.761605283     A.U. after   13 cycles
 E2(B2PLYP) =    -0.2703067723D+00 E(B2PLYP) =    -0.25803191205512D+03
 SCF Done:  E(RB2PLYP) =  -257.762181482     A.U. after   12 cycles
 E2(B2PLYP) =    -0.2758736588D+00 E(B2PLYP) =    -0.25803805514116D+03
 SCF Done:  E(RB2PLYP) =  -257.761496429     A.U. after   11 cycles
 E2(B2PLYP) =    -0.2767164282D+00 E(B2PLYP) =    -0.25803821285679D+03
 SCF Done:  E(RB2PLYP) =  -257.761326725     A.U. after   10 cycles
 E2(B2PLYP) =    -0.2769025526D+00 E(B2PLYP) =    -0.25803822927774D+03
 SCF Done:  E(RB2PLYP) =  -257.761406899     A.U. after   10 cycles
 E2(B2PLYP) =    -0.2768320158D+00 E(B2PLYP) =    -0.25803823891478D+03
 SCF Done:  E(RB2PLYP) =  -257.761461165     A.U. after    9 cycles
 E2(B2PLYP) =    -0.2767795155D+00 E(B2PLYP) =    -0.25803824068000D+03
 Optimization completed.
    -- Stationary point found.
 Normal termination of Gaussian 09 at Thu Jan 26 15:49:49 2012.

 ----------------------------------------------------------------------
 #N Geom=AllCheck Guess=TCheck SCRF=Check GenChk RB2PLYP-Full/6-31+G(d,
 p) Freq
 ----------------------------------------------------------------------

 1htz 1H-Tetrazole casno=288948 state=1 config=1 method=59 basis=4
 -----------------------------------------------------------------
 Redundant internal coordinates taken from checkpoint file:
 /tmp/rdj3/g09-31574/Gau-673.chk
 Charge =  0 Multiplicity = 1

                         Standard orientation:
 ---------------------------------------------------------------------
 Center     Atomic      Atomic             Coordinates (Angstroms)
 Number     Number       Type             X           Y           Z
 ---------------------------------------------------------------------
      1          7           0       -0.723667   -0.932025    0.000000
      2          7           0       -1.124989    0.303307    0.000000
      3          7           0        0.000000    1.057164    0.000000
      4          1           0       -0.061779    2.064008    0.000000
      5          7           0        0.640945   -1.008588    0.000000
      6          6           0        1.069983    0.238781    0.000000
      7          1           0        2.095856    0.564307    0.000000
 ---------------------------------------------------------------------

 SCF Done:  E(RB2PLYP) =  -257.761461165     A.U. after    1 cycles
 E2(B2PLYP) =    -0.2767795162D+00 E(B2PLYP) =    -0.25803824068075D+03
 E2(B2PLYP) =    -0.2767795162D+00 E(B2PLYP) =    -0.25803824068075D+03

 The electronic state is 1-A'.
 Alpha  occ. eigenvalues --  -14.98068 -14.95299 -14.93551 -14.90113 -10.73574
 Alpha  occ. eigenvalues --   -1.29850  -1.08688  -1.03029  -0.78609  -0.76898
 Alpha  occ. eigenvalues --   -0.69118  -0.58347  -0.58024  -0.46888  -0.39402
 Alpha  occ. eigenvalues --   -0.38873  -0.37782  -0.36592
 Alpha virt. eigenvalues --    0.01295   0.02250   0.04769   0.05344   0.06655
 Alpha virt. eigenvalues --    0.08845   0.10274   0.11895   0.14152   0.15756
 Alpha virt. eigenvalues --    0.17239   0.18887   0.19759   0.21856   0.23128

 Mulliken atomic charges:
              1
     1  N   -0.006432
     2  N   -0.010890
     3  N   -0.330125
     4  H    0.352119
     5  N   -0.282954
     6  C    0.084911
     7  H    0.193371
 Sum of Mulliken atomic charges =   0.00000

 Dipole moment (field-independent basis, Debye):
    X=              2.7080    Y=              5.0062    Z=              0.0000  Tot=              5.6917
 Quadrupole moment (field-independent basis, Debye-Ang):
   XX=            -29.4193   YY=            -26.9630   ZZ=            -29.1336
   XY=              2.0593   XZ=              0.0000   YZ=              0.0000

  Exact polarizability:  44.031   0.421  43.556   0.000   0.000  24.200
 Approx polarizability:  54.539  -0.163  57.643   0.000   0.000  28.951

                     1                      2                      3
                    A"                     A"                     A"
 Frequencies --   565.9603               685.1872               724.6968
 Red. masses --     1.9056                 1.9454                 7.7656
 Frc consts  --     0.3596                 0.5381                 2.4029
 IR Inten    --    82.4071                12.2196                 9.3594

                     4                      5                      6
                    A"                     A'                     A'
 Frequencies --   844.3734               964.1176              1007.7765
 Red. masses --     1.3123                 5.1297                 6.6263
 Frc consts  --     0.5513                 2.8093                 3.9651
 IR Inten    --    25.4168                 4.1839                 0.3280

                     7                      8                      9
                    A'                     A'                     A'
 Frequencies --  1051.2987              1067.7459              1152.7907
 Red. masses --     5.2333                 3.9124                 1.8107
 Frc consts  --     3.4079                 2.6280                 1.4177
 IR Inten    --    14.7402                31.1370                15.5706

                    10                     11                     12
                    A'                     A'                     A'
 Frequencies --  1263.5011              1270.8111              1468.3856
 Red. masses --     5.2392                 3.0777                 3.1365
 Frc consts  --     4.9280                 2.9285                 3.9845
 IR Inten    --    16.2773                 0.7159                11.0697

                    13                     14                     15
                    A'                     A'                     A'
 Frequencies --  1506.4523              3338.4290              3692.3403
 Red. masses --     2.9855                 1.1006                 1.0843
 Frc consts  --     3.9919                 7.2272                 8.7097
 IR Inten    --    19.3272                 2.7201               107.1869

 - Thermochemistry -
 -------------------
 Temperature   298.150 Kelvin.  Pressure   1.00000 Atm.
 Atom     1 has atomic number  7 and mass  14.00307

 Molecular mass:    70.02795 amu.
 Principal axes and moments of inertia in atomic units:
                           1         2         3
     Eigenvalues --   172.67368 175.38757 348.06125
           X            0.86260   0.50589   0.00000
           Y           -0.50589   0.86260   0.00000
           Z            0.00000   0.00000   1.00000
 This molecule is an asymmetric top.
 Rotational symmetry number  1.
 Rotational temperatures (Kelvin)      0.50160     0.49384     0.24885
 Rotational constants (GHZ):          10.45174    10.29002     5.18513
 Zero-point vibrational energy     123238.5 (Joules/Mol)
                                   29.45471 (Kcal/Mol)
 Warning -- explicit consideration of   1 degrees of freedom as
           vibrations may cause significant error
 Vibrational temperatures:    814.29   985.83  1042.68  1214.86  1387.15
          (Kelvin)           1449.96  1512.58  1536.25  1658.61  1817.89
                             1828.41  2112.68  2167.45  4803.25  5312.45

 Zero-point correction=                           0.046939 (Hartree/Particle)
 Thermal correction to Energy=                    0.050432
 Thermal correction to Enthalpy=                  0.051377
 Thermal correction to Gibbs Free Energy=         0.020826
 Sum of electronic and zero-point Energies=           -257.991302
 Sum of electronic and thermal Energies=              -257.987808
 Sum of electronic and thermal Enthalpies=            -257.986864
 Sum of electronic and thermal Free Energies=         -258.017414

                     E (Thermal)             CV                S
                      KCal/Mol        Cal/Mol-Kelvin    Cal/Mol-Kelvin
 Total                   31.647             11.432             64.298
 Electronic               0.000              0.000              0.000
 Translational            0.889              2.981             38.656
 Rotational               0.889              2.981             23.870
 Vibrational             29.869              5.470              1.772
 Vibration     1          0.922              1.105              0.512

 Optimization completed.
    -- Stationary point found.
 Normal termination of Gaussian 09 at Thu Jan 26 15:52:46 2012.
