 Gaussian 98, Revision A.4,
 Gaussian 98:  IBM-RS6000-G98RevA.4 11-Sep-1998

 ----------------------
 #QCISD/6-31G* OPT FREQ
 ----------------------

 ----------------------------------------
 1H tetrazole c CH-NH-N=N-N= casno=288948
 ----------------------------------------
 Symbolic Z-matrix:
 Charge =  0 Multiplicity = 1

 SCF Done:  E(RHF) =  -256.748295392     A.U. after   15 cycles
 Optimization completed.
    -- Stationary point found.
 Normal termination of Gaussian 98.

 ------------------------------------------------------
 #N Geom=AllCheck Guess=TCheck RQCISD(FC)/6-31G(d) Freq
 ------------------------------------------------------

 1H tetrazole c CH-NH-N=N-N= casno=288948
 ----------------------------------------
 Redundant internal coordinates taken from checkpointfile:
 /wrk/rdj3/Gau-13772.chk
 Charge =  0 Multiplicity = 1

                         Standard orientation:
 ---------------------------------------------------------------------
 Center     Atomic     Atomic              Coordinates (Angstroms)
 Number     Number      Type              X           Y           Z
 ---------------------------------------------------------------------
    1          7             0       -0.726465   -0.928025    0.000000
    2          7             0       -1.124007    0.301334    0.000000
    3          7             0        0.000000    1.057392    0.000000
    4          1             0       -0.064264    2.067238    0.000000
    5          7             0        0.643969   -1.009007    0.000000
    6          6             0        1.068554    0.236093    0.000000
    7          1             0        2.098462    0.564346    0.000000
 ---------------------------------------------------------------------

 SCF Done:  E(RHF) =  -256.748295392     A.U. after    1 cycles
 SCF Done:  E(RHF) =  -256.748320749     A.U. after   10 cycles
 SCF Done:  E(RHF) =  -256.748268401     A.U. after   10 cycles
 SCF Done:  E(RHF) =  -256.748390036     A.U. after    9 cycles
 SCF Done:  E(RHF) =  -256.748198412     A.U. after    9 cycles
 SCF Done:  E(RHF) =  -256.748295093     A.U. after    7 cycles
 SCF Done:  E(RHF) =  -256.748375572     A.U. after    9 cycles
 SCF Done:  E(RHF) =  -256.748213107     A.U. after    9 cycles
 SCF Done:  E(RHF) =  -256.748223645     A.U. after   10 cycles
 SCF Done:  E(RHF) =  -256.748255740     A.U. after    9 cycles
 SCF Done:  E(RHF) =  -256.748331518     A.U. after    9 cycles
 SCF Done:  E(RHF) =  -256.748265462     A.U. after   10 cycles
 SCF Done:  E(RHF) =  -256.748322782     A.U. after   10 cycles
 SCF Done:  E(RHF) =  -256.748295041     A.U. after    7 cycles
 SCF Done:  E(RHF) =  -256.748276024     A.U. after    7 cycles
 SCF Done:  E(RHF) =  -256.748313447     A.U. after    7 cycles
 SCF Done:  E(RHF) =  -256.748289202     A.U. after    8 cycles
 SCF Done:  E(RHF) =  -256.748301243     A.U. after    8 cycles
 SCF Done:  E(RHF) =  -256.748295330     A.U. after    6 cycles

  The electronic state is 1-A'.
 Alpha  occ. eigenvalues --  -15.68909 -15.67060 -15.65268 -15.60939 -11.34359
 Alpha  occ. eigenvalues --   -1.48993  -1.25203  -1.19515  -0.90458  -0.88692
 Alpha  occ. eigenvalues --   -0.79783  -0.67402  -0.67200  -0.56738  -0.47634
 Alpha  occ. eigenvalues --   -0.47203  -0.45199  -0.41794
 Alpha virt. eigenvalues --    0.13847   0.18716   0.19648   0.25025   0.36701
 Alpha virt. eigenvalues --    0.37618   0.47458   0.49871   0.64312   0.73615
 Alpha virt. eigenvalues --    0.73934   0.82426   0.82528   0.89459   0.91669

                     1                      2                      3
                    A"                     A"                     A"
 Frequencies --   553.9428               690.9535               737.5453
 Red. masses --     1.7535                 2.0662                 8.0994
 Frc consts  --     0.3170                 0.5812                 2.5958
 IR Inten    --   105.7132                 8.8132                 9.5366
 Raman Activ --     0.0000                 0.0000                 0.0000

                     4                      5                      6
                    A"                     A'                     A'
 Frequencies --   865.6869               980.2452              1021.3323
 Red. masses --     1.3311                 5.4340                 6.8629
 Frc consts  --     0.5878                 3.0764                 4.2179
 IR Inten    --    19.8312                 2.5142                 0.4560
 Raman Activ --     0.0000                 0.0000                 0.0000

                     7                      8                      9
                    A'                     A'                     A'
 Frequencies --  1072.5800              1088.4587              1173.9415
 Red. masses --     5.6604                 3.1707                 1.7596
 Frc consts  --     3.8367                 2.2133                 1.4287
 IR Inten    --    17.7117                30.1143                15.0699
 Raman Activ --     0.0000                 0.0000                 0.0000

                    10                     11                     12
                    A'                     A'                     A'
 Frequencies --  1299.3443              1343.5436              1502.8570
 Red. masses --     2.4040                10.0533                 3.0070
 Frc consts  --     2.3913                10.6921                 4.0014
 IR Inten    --     0.8910                18.6511                14.7203
 Raman Activ --     0.0000                 0.0000                 0.0000

                    13                     14                     15
                    A'                     A'                     A'
 Frequencies --  1549.6719              3327.7085              3685.2361
 Red. masses --     3.6105                 1.1019                 1.0842
 Frc consts  --     5.1086                 7.1894                 8.6753
 IR Inten    --    20.9510                 0.7543               104.7799
 Raman Activ --     0.0000                 0.0000                 0.0000

 - Thermochemistry -
 -------------------
 Temperature   298.150 Kelvin.  Pressure   1.00000 Atm.
 Atom  1 has atomic number  7 and mass  14.00307

 Molecular mass:    70.02795 amu.
 Principal axes and moments of inertia in atomic units:
                           1         2         3
     EIGENVALUES --   172.25958 175.62514 347.88473
           X            0.88395   0.46759   0.00000
           Y           -0.46759   0.88395   0.00000
           Z            0.00000   0.00000   1.00000
 THIS MOLECULE IS AN ASYMMETRIC TOP.
 ROTATIONAL SYMMETRY NUMBER  1.
 ROTATIONAL TEMPERATURES (KELVIN)      0.50281     0.49317     0.24897
 ROTATIONAL CONSTANTS (GHZ)           10.47687    10.27610     5.18776
 Zero-point vibrational energy     124968.2 (Joules/Mol)
                                   29.86812 (Kcal/Mol)
 WARNING-- EXPLICIT CONSIDERATION OF   1 DEGREES OF FREEDOM AS
           VIBRATIONS MAY CAUSE SIGNIFICANT ERROR
 VIBRATIONAL TEMPERATURES:    797.00   994.12  1061.16  1245.52  1410.35
          (KELVIN)           1469.46  1543.19  1566.04  1689.03  1869.46
                             1933.05  2162.26  2229.62  4787.80  5302.20

 Zero-point correction=                           0.047598 (Hartree/Particle)
 Thermal correction to Energy=                    0.051069
 Thermal correction to Enthalpy=                  0.052014
 Thermal correction to Gibbs Free Energy=         0.021490
 Sum of electronic and zero-point Energies=           -257.495883
 Sum of electronic and thermal Energies=              -257.492412
 Sum of electronic and thermal Enthalpies=            -257.491467
 Sum of electronic and thermal Free Energies=         -257.521991

                     E (Thermal)             CV                S
                      KCAL/MOL        CAL/MOL-KELVIN    CAL/MOL-KELVIN
 TOTAL                   32.047             11.231             64.242
 ELECTRONIC               0.000              0.000              0.000
 TRANSLATIONAL            0.889              2.981             38.656
 ROTATIONAL               0.889              2.981             23.869
 VIBRATIONAL             30.269              5.270              1.717
 VIBRATION  1             0.909              1.131              0.536
                       Q            LOG10(Q)             LN(Q)
 TOTAL BOT       0.130418D-09         -9.884661        -22.760273
 TOTAL V=0       0.102021D+13         12.008691         27.651034
 VIB (BOT)       0.154177D-21        -21.811981        -50.223941
 VIB (BOT)  1    0.282230D+00         -0.549397         -1.265034
 VIB (V=0)       0.120607D+01          0.081372          0.187366
 VIB (V=0)  1    0.107415D+01          0.031067          0.071534
 ELECTRONIC      0.100000D+01          0.000000          0.000000
 TRANSLATIONAL   0.230339D+08          7.362368         16.952478
 ROTATIONAL      0.367242D+05          4.564952         10.511191
 ***** Axes restored to original set *****
 -------------------------------------------------------------------
 Center     Atomic                   Forces (Hartrees/Bohr)
 Number     Number              X              Y              Z
 -------------------------------------------------------------------
    1          7           0.000029239   -0.000017263    0.000000000
    2          7          -0.000062762   -0.000082686    0.000000000
    3          7           0.000128375   -0.000152935    0.000000000
    4          1           0.000001092   -0.000003817    0.000000000
    5          7          -0.000194151    0.000095958    0.000000000
    6          6           0.000062778    0.000176872    0.000000000
    7          1           0.000035429   -0.000016129    0.000000000
 -------------------------------------------------------------------
 Cartesian Forces:  Max     0.000194151 RMS     0.000080314

 GradGradGradGradGradGradGradGradGradGradGradGradGradGradGradGradGradGrad
 Berny optimization.
 Internal  Forces:  Max     0.000136157 RMS     0.000059827
 Search for a local minimum.
 Step number   1 out of a maximum of  36
 All quantities printed in internal units (Hartrees-Bohrs-Radians)
 Second derivative matrix not updated -- analytic derivatives used.
     Eigenvalues ---    0.00750   0.02605   0.07113   0.07857   0.10727
     Eigenvalues ---    0.11093   0.20682   0.26310   0.36080   0.38678
     Eigenvalues ---    0.45450   0.47857   0.48913   0.59753   0.64850
     Eigenvalues --- 1000.000001000.000001000.000001000.000001000.00000
     Eigenvalues --- 1000.000001000.000001000.000001000.000001000.00000
     Eigenvalues --- 1000.00000
 Angle between quadratic step and forces=  31.56 degrees.
 Linear search not attempted -- first point.
 Iteration  1 RMS(Cart)=  0.00016984 RMS(Int)=  0.00000003
 Iteration  2 RMS(Cart)=  0.00000003 RMS(Int)=  0.00000001
 Variable       Old X    -DE/DX   Delta X   Delta X   Delta X     New X
                                 (Linear)    (Quad)   (Total)
    R1        2.44160  -0.00007   0.00000  -0.00002  -0.00002   2.44158
    R2        2.59426  -0.00008   0.00000  -0.00045  -0.00045   2.59381
    R3        2.55987   0.00010   0.00000   0.00019   0.00019   2.56006
    R4        1.91219   0.00000   0.00000   0.00000   0.00000   1.91219
    R5        2.54681  -0.00012   0.00000  -0.00028  -0.00028   2.54654
    R6        2.48594   0.00003   0.00000   0.00018   0.00018   2.48612
    R7        2.04271   0.00003   0.00000   0.00005   0.00005   2.04276
    A1        1.94258  -0.00007   0.00000  -0.00006  -0.00006   1.94252
    A2        1.85017  -0.00001   0.00000  -0.00015  -0.00015   1.85002
    A3        2.09937  -0.00003   0.00000  -0.00017  -0.00017   2.09920
    A4        1.89416   0.00007   0.00000   0.00023   0.00023   1.89439
    A5        2.28965  -0.00003   0.00000  -0.00006  -0.00006   2.28959
    A6        1.84041   0.00014   0.00000   0.00034   0.00034   1.84075
    A7        1.89746  -0.00013   0.00000  -0.00037  -0.00037   1.89709
    A8        2.17775   0.00009   0.00000   0.00050   0.00050   2.17824
    A9        2.20798   0.00004   0.00000  -0.00013  -0.00013   2.20785
    D1        0.00000   0.00000   0.00000   0.00000   0.00000   0.00000
    D2        0.00000   0.00000   0.00000   0.00000   0.00000   0.00000
    D3        3.14159   0.00000   0.00000   0.00000   0.00000   3.14159
    D4        0.00000   0.00000   0.00000   0.00000   0.00000   0.00000
    D5        0.00000   0.00000   0.00000   0.00000   0.00000   0.00000
    D6        3.14159   0.00000   0.00000   0.00000   0.00000   3.14159
    D7        3.14159   0.00000   0.00000   0.00000   0.00000   3.14159
    D8        0.00000   0.00000   0.00000   0.00000   0.00000   0.00000
    D9        0.00000   0.00000   0.00000   0.00000   0.00000   0.00000
   D10        3.14159   0.00000   0.00000   0.00000   0.00000   3.14159
         Item               Value     Threshold  Converged?
 Maximum Force            0.000136     0.000450     YES
 RMS     Force            0.000060     0.000300     YES
 Maximum Displacement     0.000384     0.001800     YES
 RMS     Displacement     0.000170     0.001200     YES
 Predicted change in Energy=-1.282174D-07
 Optimization completed.
    -- Stationary point found.
                         ----------------------------
                         !   Optimized Parameters   !
                         ! (Angstroms and Degrees)  !
 ------------------------                            -------------------------
 ! Name  Definition              Value          Derivative Info.             !
 -----------------------------------------------------------------------------
 ! R1    R(1,2)                  1.292          -DE/DX =   -0.0001           !
 ! R2    R(1,5)                  1.3728         -DE/DX =   -0.0001           !
 ! R3    R(2,3)                  1.3546         -DE/DX =    0.0001           !
 ! R4    R(3,4)                  1.0119         -DE/DX =    0.               !
 ! R5    R(3,6)                  1.3477         -DE/DX =   -0.0001           !
 ! R6    R(5,6)                  1.3155         -DE/DX =    0.               !
 ! R7    R(6,7)                  1.081          -DE/DX =    0.               !
 ! A1    A(2,1,5)              111.3016         -DE/DX =   -0.0001           !
 ! A2    A(1,2,3)              106.0067         -DE/DX =    0.               !
 ! A3    A(2,3,4)              120.2853         -DE/DX =    0.               !
 ! A4    A(2,3,6)              108.5273         -DE/DX =    0.0001           !
 ! A5    A(4,3,6)              131.1874         -DE/DX =    0.               !
 ! A6    A(1,5,6)              105.4478         -DE/DX =    0.0001           !
 ! A7    A(3,6,5)              108.7165         -DE/DX =   -0.0001           !
 ! A8    A(3,6,7)              124.7757         -DE/DX =    0.0001           !
 ! A9    A(5,6,7)              126.5078         -DE/DX =    0.               !
 ! D1    D(5,1,2,3)              0.             -DE/DX =    0.               !
 ! D2    D(2,1,5,6)              0.             -DE/DX =    0.               !
 ! D3    D(1,2,3,4)            180.             -DE/DX =    0.               !
 ! D4    D(1,2,3,6)              0.             -DE/DX =    0.               !
 ! D5    D(2,3,6,5)              0.             -DE/DX =    0.               !
 ! D6    D(2,3,6,7)            180.             -DE/DX =    0.               !
 ! D7    D(4,3,6,5)            180.             -DE/DX =    0.               !
 ! D8    D(4,3,6,7)              0.             -DE/DX =    0.               !
 ! D9    D(1,5,6,3)              0.             -DE/DX =    0.               !
 ! D10   D(1,5,6,7)            180.             -DE/DX =    0.               !
 -----------------------------------------------------------------------------
 GradGradGradGradGradGradGradGradGradGradGradGradGradGradGradGradGradGrad

 1\1\GINC-FERRUM\Freq\RQCISD-FC\6-31G(d)\C1H2N4\RDJ3\06-Nov-1999\0\\#N
 GEOM=ALLCHECK GUESS=TCHECK RQCISD(FC)/6-31G(D) FREQ\\1H tetrazole c CH
 -NH-N=N-N= casno=288948\\0,1\N,-0.7264650034,-0.9280250191,0.\N,-1.124
 0070357,0.3013339705,0.\N,-0.0000000556,1.057392,0.\H,-0.0642640821,2.
 0672379983,0.\N,0.6439689987,-1.0090069831,0.\C,1.068553966,0.23609302
 81,0.\H,2.0984619574,0.5643460551,0.\\Version=IBM-RS6000-G98RevA.4\Sta
 te=1-A'\HF=-256.7482954\MP2=-257.534988\MP3=-257.5320606\MP4D=-257.554
 3733\MP4DQ=-257.533196\MP4SDQ=-257.5426662\QCISD=-257.543481\RMSD=1.17
 2e-09\RMSF=8.031e-05\Dipole=0.9961978,1.9099396,0.\DipoleDeriv=0.20614
 09,-0.0278166,0.,-0.113144,-0.1254919,0.,0.,0.,-0.1473734,-0.1588108,0
 .3438493,0.,0.3377477,0.1365604,0.,0.,0.,-0.0910874,-0.1554165,-0.1365
 194,0.,-0.0842764,-0.5574214,0.,0.,0.,-0.2039414,0.2106307,-0.008203,0
 .,-0.0201731,0.2985197,0.,0.,0.,0.3716524,-0.4527079,0.0285959,0.,-0.0
 92365,-0.2821297,0.,0.,0.,-0.2227711,0.2815494,-0.1707364,0.,0.0024345
 ,0.4261353,0.,0.,0.,0.1270171,0.0685115,-0.0290247,0.,-0.0302693,0.103
 8984,0.,0.,0.,0.166409\PG=CS [SG(C1H2N4)]\NImag=0\\0.43470058,0.045116
 47,0.62701247,0.,0.,0.12363727,-0.13868897,0.04391867,0.,0.54642667,0.
 11120108,-0.35683264,0.,-0.09109892,0.54147051,0.,0.,-0.09667893,0.,0.
 ,0.11392958,-0.02619083,-0.07185244,0.,-0.23075520,-0.07035293,0.,0.60
 360334,0.00464161,-0.15057678,0.,-0.02392518,-0.12176537,0.,-0.0931222
 1,1.03054904,0.,0.,0.02645121,0.,0.,-0.06597559,0.,0.,0.08505704,-0.00
 936090,-0.01029051,0.,0.01647231,-0.02986485,0.,-0.07699801,0.03698450
 ,0.,0.06253887,-0.00214099,-0.00007245,0.,0.00643871,-0.00945220,0.,0.
 02819378,-0.46802880,0.,-0.02705259,0.48008661,0.,0.,0.00800587,0.,0.,
 -0.01274160,0.,0.,-0.00479529,0.,0.,0.01307015,-0.18883504,0.01339541,
 0.,-0.08045047,0.11915420,0.,0.01868054,-0.03557134,0.,-0.00653198,0.0
 0001160,0.,0.40179369,-0.03216115,-0.10414708,0.,0.01375652,-0.0375015
 3,0.,0.08268702,-0.10571616,0.,0.00871712,0.00048553,0.,0.00991396,0.6
 4060919,0.,0.,-0.08897636,0.,0.,0.03570704,0.,0.,0.01993775,0.,0.,0.00
 773540,0.,0.,0.10827511,-0.07223702,-0.02162681,0.,-0.11229625,-0.0400
 6517,0.,-0.27570469,0.12106761,0.,0.01456562,-0.00583960,0.,-0.1454014
 6,-0.08288407,0.,0.93608993,-0.12205716,-0.00968775,0.,0.04672612,-0.0
 1022884,0.,0.09828490,-0.19805804,0.,0.02172340,-0.00277465,0.,-0.0772
 7758,-0.39412615,0.,0.12080663,0.70140486,0.,0.,0.01825136,0.,0.,0.019
 39834,0.,0.,-0.05742863,0.,0.,-0.01068319,0.,0.,-0.07753449,0.,0.,0.13
 822477,0.00063194,0.00131183,0.,-0.00070072,0.00105704,0.,-0.01264272,
 -0.01008415,0.,-0.00068453,0.00038728,0.,0.00071771,-0.00003056,0.,-0.
 34500758,-0.08819580,0.,0.35768342,-0.00462213,-0.00569433,0.,0.004194
 09,-0.00571194,0.,0.02616633,0.01362298,0.,-0.00021797,-0.00024630,0.,
 -0.02961649,0.00040770,0.,-0.09145699,-0.08654337,0.,0.09555173,0.0841
 6367,0.,0.,0.00928246,0.,0.,0.00635175,0.,0.,-0.00323426,0.,0.,-0.0005
 8853,0.,0.,-0.00513481,0.,0.,-0.03022281,0.,0.,0.02355272\\-0.00002924
 ,0.00001726,0.,0.00006276,0.00008269,0.,-0.00012837,0.00015294,0.,-0.0
 0000109,0.00000382,0.,0.00019415,-0.00009596,0.,-0.00006278,-0.0001768
 7,0.,-0.00003543,0.00001613,0.\\\@

 Sacred cows make the best hamburger.
                               -- Mark Twain
 Job cpu time:  0 days 12 hours 45 minutes 54.3 seconds.
 File lengths (MBytes):  RWF=  422 Int=    0 D2E=    0 Chk=    4 Scr=    1
 Normal termination of Gaussian 98.
