 Gaussian 98, Revision A.4,
 Gaussian 98:  x86-Linux-G98RevA.4 11-Sep-1998

 ---------------------
 #QCISD/3-21G opt freq
 ---------------------

 ----------------------------------------
 1H tetrazole c CH-NH-N=N-N= casno=288948
 ----------------------------------------
 Symbolic Z-matrix:
 Charge =  0 Multiplicity = 1

 SCF Done:  E(RHF) =  -255.261123681     A.U. after   14 cycles
 SCF Done:  E(RHF) =  -255.264799951     A.U. after   15 cycles
 SCF Done:  E(RHF) =  -255.257873416     A.U. after   14 cycles
 SCF Done:  E(RHF) =  -255.257158942     A.U. after   14 cycles
 SCF Done:  E(RHF) =  -255.258454392     A.U. after   12 cycles
 SCF Done:  E(RHF) =  -255.259106204     A.U. after   12 cycles
 SCF Done:  E(RHF) =  -255.259234347     A.U. after   11 cycles
 SCF Done:  E(RHF) =  -255.259210584     A.U. after   12 cycles
 SCF Done:  E(RHF) =  -255.259145565     A.U. after   11 cycles
 Optimization completed.
    -- Stationary point found.
 Normal termination of Gaussian 98.

 ---------------------------------------------------
 #N Geom=AllCheck Guess=TCheck RQCISD(FC)/3-21G Freq
 ---------------------------------------------------

 1H tetrazole c CH-NH-N=N-N= casno=288948
 ----------------------------------------
 Redundant internal coordinates taken from checkpointfile:
 /wrk/rdj3/Gau-19572.chk
 Charge =  0 Multiplicity = 1

                         Standard orientation:
 ---------------------------------------------------------------------
 Center     Atomic     Atomic              Coordinates (Angstroms)
 Number     Number      Type              X           Y           Z
 ---------------------------------------------------------------------
    1          7             0       -0.758851   -0.975001    0.000000
    2          7             0       -1.181883    0.286981    0.000000
    3          7             0        0.000000    1.096835    0.000000
    4          1             0       -0.068191    2.107051    0.000000
    5          7             0        0.718432   -1.019271    0.000000
    6          6             0        1.086153    0.259957    0.000000
    7          1             0        2.107385    0.606393    0.000000
 ---------------------------------------------------------------------

 SCF Done:  E(RHF) =  -255.259145565     A.U. after    1 cycles
 SCF Done:  E(RHF) =  -255.259106207     A.U. after   10 cycles
 SCF Done:  E(RHF) =  -255.259181738     A.U. after   10 cycles
 SCF Done:  E(RHF) =  -255.259113429     A.U. after   11 cycles
 SCF Done:  E(RHF) =  -255.259175547     A.U. after   11 cycles
 SCF Done:  E(RHF) =  -255.259145185     A.U. after    8 cycles
 SCF Done:  E(RHF) =  -255.259122405     A.U. after    8 cycles
 SCF Done:  E(RHF) =  -255.259167456     A.U. after    8 cycles
 SCF Done:  E(RHF) =  -255.259137513     A.U. after    9 cycles
 SCF Done:  E(RHF) =  -255.259153268     A.U. after    9 cycles
 SCF Done:  E(RHF) =  -255.259145498     A.U. after    6 cycles

  The electronic state is 1-A'.
 Alpha  occ. eigenvalues --  -15.62314 -15.61524 -15.60353 -15.55441 -11.30877
 Alpha  occ. eigenvalues --   -1.46789  -1.23396  -1.20852  -0.89279  -0.87551
 Alpha  occ. eigenvalues --   -0.79552  -0.65594  -0.65409  -0.55734  -0.48495
 Alpha  occ. eigenvalues --   -0.46165  -0.44871  -0.42782
 Alpha virt. eigenvalues --    0.11756   0.16825   0.23093   0.25324   0.33267
 Alpha virt. eigenvalues --    0.37288   0.45729   0.54366   0.61221   0.92383
 Alpha virt. eigenvalues --    0.93833   1.04622   1.09177   1.20766   1.31684

                     1                      2                      3
                    A"                     A"                     A"
 Frequencies --   585.5207               659.1407               674.1803
 Red. masses --     1.9250                 1.7394                 9.0408
 Frc consts  --     0.3888                 0.4453                 2.4211
 IR Inten    --   136.2199                26.3905                10.0218
 Raman Activ --     0.0000                 0.0000                 0.0000

                     4                      5                      6
                    A'                     A'                     A"
 Frequencies --   725.1605               846.8527               912.0323
 Red. masses --    11.3784                 6.0660                 1.3661
 Frc consts  --     3.5253                 2.5631                 0.6695
 IR Inten    --    13.0128                16.6247                16.1478
 Raman Activ --     0.0000                 0.0000                 0.0000

                     7                      8                      9
                    A'                     A'                     A'
 Frequencies --   969.3244              1000.6204              1062.0002
 Red. masses --     5.1756                 7.0184                 7.4334
 Frc consts  --     2.8652                 4.1403                 4.9395
 IR Inten    --     7.3908                 6.6136                 2.9594
 Raman Activ --     0.0000                 0.0000                 0.0000

                    10                     11                     12
                    A'                     A'                     A'
 Frequencies --  1131.9213              1221.5938              1367.2155
 Red. masses --     2.6753                 2.0614                 2.2262
 Frc consts  --     2.0195                 1.8124                 2.4518
 IR Inten    --    12.9987                10.6358                 8.3845
 Raman Activ --     0.0000                 0.0000                 0.0000

                    13                     14                     15
                    A'                     A'                     A'
 Frequencies --  1442.3930              3295.6184              3606.0988
 Red. masses --     2.0572                 1.0996                 1.0842
 Frc consts  --     2.5217                 7.0364                 8.3071
 IR Inten    --    43.6666                 1.1887               106.7577
 Raman Activ --     0.0000                 0.0000                 0.0000

 - Thermochemistry -
 -------------------
 Temperature   298.150 Kelvin.  Pressure   1.00000 Atm.
 Atom  1 has atomic number  7 and mass  14.00307

 Molecular mass:    70.02795 amu.
 Principal axes and moments of inertia in atomic units:
                           1         2         3
     EIGENVALUES --   183.53091 190.86534 374.39626
           X            0.99569   0.09277   0.00000
           Y           -0.09277   0.99569   0.00000
           Z            0.00000   0.00000   1.00000
 THIS MOLECULE IS AN ASYMMETRIC TOP.
 ROTATIONAL SYMMETRY NUMBER  1.
 ROTATIONAL TEMPERATURES (KELVIN)      0.47193     0.45379     0.23134
 ROTATIONAL CONSTANTS (GHZ)            9.83345     9.45557     4.82040
 Zero-point vibrational energy     116634.0 (Joules/Mol)
                                   27.87619 (Kcal/Mol)
 WARNING-- EXPLICIT CONSIDERATION OF   1 DEGREES OF FREEDOM AS
           VIBRATIONS MAY CAUSE SIGNIFICANT ERROR
 VIBRATIONAL TEMPERATURES:    842.43   948.35   969.99  1043.34  1218.43
          (KELVIN)           1312.20  1394.63  1439.66  1527.97  1628.57
                             1757.59  1967.11  2075.27  4741.63  5188.34

 Zero-point correction=                           0.044424 (Hartree/Particle)
 Thermal correction to Energy=                    0.048058
 Thermal correction to Enthalpy=                  0.049002
 Thermal correction to Gibbs Free Energy=         0.018166
 Sum of electronic and zero-point Energies=           -255.778909
 Sum of electronic and thermal Energies=              -255.775275
 Sum of electronic and thermal Enthalpies=            -255.774331
 Sum of electronic and thermal Free Energies=         -255.805166

                     E (Thermal)             CV                S
                      KCAL/MOL        CAL/MOL-KELVIN    CAL/MOL-KELVIN
 TOTAL                   30.157             12.413             64.899
 ELECTRONIC               0.000              0.000              0.000
 TRANSLATIONAL            0.889              2.981             38.656
 ROTATIONAL               0.889              2.981             24.087
 VIBRATIONAL             28.379              6.451              2.155
 VIBRATION  1             0.943              1.063              0.475
                       Q            LOG10(Q)             LN(Q)
 TOTAL BOT       0.440703D-08         -8.355854        -19.240065
 TOTAL V=0       0.119512D+13         12.077413         27.809270
 VIB (BOT)       0.466708D-20        -20.330955        -46.813754
 VIB (BOT)  1    0.258812D+00         -0.587015         -1.351653
 VIB (V=0)       0.126564D+01          0.102312          0.235582
 VIB (V=0)  1    0.106301D+01          0.026539          0.061107
 ELECTRONIC      0.100000D+01          0.000000          0.000000
 TRANSLATIONAL   0.230339D+08          7.362368         16.952478
 ROTATIONAL      0.409952D+05          4.612733         10.621211
 ***** Axes restored to original set *****
 -------------------------------------------------------------------
 Center     Atomic                   Forces (Hartrees/Bohr)
 Number     Number              X              Y              Z
 -------------------------------------------------------------------
    1          7          -0.000028344   -0.000069983    0.000000000
    2          7           0.000063572    0.000028874    0.000000000
    3          7          -0.000099071    0.000254263    0.000000000
    4          1           0.000029539   -0.000001137    0.000000000
    5          7          -0.000131134   -0.000046819    0.000000000
    6          6           0.000163200   -0.000200702    0.000000000
    7          1           0.000002238    0.000035504    0.000000000
 -------------------------------------------------------------------
 Cartesian Forces:  Max     0.000254263 RMS     0.000090891

 GradGradGradGradGradGradGradGradGradGradGradGradGradGradGradGradGradGrad
 Berny optimization.
 Internal  Forces:  Max     0.000213934 RMS     0.000054794
 Search for a local minimum.
 Step number   1 out of a maximum of  36
 All quantities printed in internal units (Hartrees-Bohrs-Radians)
 Second derivative matrix not updated -- analytic derivatives used.
     Eigenvalues ---    0.00847   0.02857   0.06818   0.07364   0.10187
     Eigenvalues ---    0.10594   0.11508   0.16013   0.28159   0.32777
     Eigenvalues ---    0.37983   0.41128   0.46269   0.50857   0.58913
     Eigenvalues --- 1000.000001000.000001000.000001000.000001000.00000
     Eigenvalues --- 1000.000001000.000001000.000001000.000001000.00000
     Eigenvalues --- 1000.00000
 Angle between quadratic step and forces=  37.13 degrees.
 Linear search not attempted -- first point.
 Iteration  1 RMS(Cart)=  0.00015218 RMS(Int)=  0.00000003
 Iteration  2 RMS(Cart)=  0.00000002 RMS(Int)=  0.00000000
 Variable       Old X    -DE/DX   Delta X   Delta X   Delta X     New X
                                 (Linear)    (Quad)   (Total)
    R1        2.51522   0.00008   0.00000   0.00027   0.00027   2.51549
    R2        2.79291  -0.00001   0.00000  -0.00014  -0.00014   2.79277
    R3        2.70747  -0.00003   0.00000  -0.00039  -0.00039   2.70708
    R4        1.91338   0.00002   0.00000   0.00004   0.00004   1.91342
    R5        2.59113   0.00021   0.00000   0.00064   0.00064   2.59177
    R6        2.51528   0.00013   0.00000   0.00018   0.00018   2.51546
    R7        2.03787  -0.00001   0.00000  -0.00004  -0.00004   2.03783
    A1        1.92420   0.00002   0.00000  -0.00002  -0.00002   1.92417
    A2        1.84810   0.00004   0.00000   0.00012   0.00012   1.84821
    A3        2.10414   0.00004   0.00000   0.00026   0.00026   2.10440
    A4        1.88436  -0.00003   0.00000   0.00001   0.00001   1.88437
    A5        2.29469  -0.00001   0.00000  -0.00027  -0.00027   2.29442
    A6        1.82075   0.00000   0.00000   0.00011   0.00011   1.82086
    A7        1.94738  -0.00003   0.00000  -0.00022  -0.00022   1.94716
    A8        2.15805  -0.00002   0.00000  -0.00030  -0.00030   2.15776
    A9        2.17776   0.00005   0.00000   0.00051   0.00051   2.17827
    D1        0.00000   0.00000   0.00000   0.00000   0.00000   0.00000
    D2        0.00000   0.00000   0.00000   0.00000   0.00000   0.00000
    D3        3.14159   0.00000   0.00000   0.00000   0.00000   3.14159
    D4        0.00000   0.00000   0.00000   0.00000   0.00000   0.00000
    D5        0.00000   0.00000   0.00000   0.00000   0.00000   0.00000
    D6        3.14159   0.00000   0.00000   0.00000   0.00000   3.14159
    D7        3.14159   0.00000   0.00000   0.00000   0.00000   3.14159
    D8        0.00000   0.00000   0.00000   0.00000   0.00000   0.00000
    D9        0.00000   0.00000   0.00000   0.00000   0.00000   0.00000
   D10        3.14159   0.00000   0.00000   0.00000   0.00000   3.14159
         Item               Value     Threshold  Converged?
 Maximum Force            0.000214     0.000450     YES
 RMS     Force            0.000055     0.000300     YES
 Maximum Displacement     0.000378     0.001800     YES
 RMS     Displacement     0.000152     0.001200     YES
 Predicted change in Energy=-1.245484D-07
 Optimization completed.
    -- Stationary point found.
                         ----------------------------
                         !   Optimized Parameters   !
                         ! (Angstroms and Degrees)  !
 ------------------------                            -------------------------
 ! Name  Definition              Value          Derivative Info.             !
 -----------------------------------------------------------------------------
 ! R1    R(1,2)                  1.331          -DE/DX =    0.0001           !
 ! R2    R(1,5)                  1.4779         -DE/DX =    0.               !
 ! R3    R(2,3)                  1.4327         -DE/DX =    0.               !
 ! R4    R(3,4)                  1.0125         -DE/DX =    0.               !
 ! R5    R(3,6)                  1.3712         -DE/DX =    0.0002           !
 ! R6    R(5,6)                  1.331          -DE/DX =    0.0001           !
 ! R7    R(6,7)                  1.0784         -DE/DX =    0.               !
 ! A1    A(2,1,5)              110.2483         -DE/DX =    0.               !
 ! A2    A(1,2,3)              105.8881         -DE/DX =    0.               !
 ! A3    A(2,3,4)              120.5582         -DE/DX =    0.               !
 ! A4    A(2,3,6)              107.966          -DE/DX =    0.               !
 ! A5    A(4,3,6)              131.4758         -DE/DX =    0.               !
 ! A6    A(1,5,6)              104.3211         -DE/DX =    0.               !
 ! A7    A(3,6,5)              111.5766         -DE/DX =    0.               !
 ! A8    A(3,6,7)              123.6472         -DE/DX =    0.               !
 ! A9    A(5,6,7)              124.7762         -DE/DX =    0.0001           !
 ! D1    D(5,1,2,3)              0.             -DE/DX =    0.               !
 ! D2    D(2,1,5,6)              0.             -DE/DX =    0.               !
 ! D3    D(1,2,3,4)            180.             -DE/DX =    0.               !
 ! D4    D(1,2,3,6)              0.             -DE/DX =    0.               !
 ! D5    D(2,3,6,5)              0.             -DE/DX =    0.               !
 ! D6    D(2,3,6,7)            180.             -DE/DX =    0.               !
 ! D7    D(4,3,6,5)            180.             -DE/DX =    0.               !
 ! D8    D(4,3,6,7)              0.             -DE/DX =    0.               !
 ! D9    D(1,5,6,3)              0.             -DE/DX =    0.               !
 ! D10   D(1,5,6,7)            180.             -DE/DX =    0.               !
 -----------------------------------------------------------------------------
 GradGradGradGradGradGradGradGradGradGradGradGradGradGradGradGradGradGrad

 1\1\GINC-QCHEM3\Freq\RQCISD-FC\3-21G\C1H2N4\RDJ3\27-Oct-1999\0\\#N GEO
 M=ALLCHECK GUESS=TCHECK RQCISD(FC)/3-21G FREQ\\1H tetrazole c CH-NH-N=
 N-N= casno=288948\\0,1\N,-1.2069409746,-0.2641476099,0.\N,-0.724984518
 1,0.9765258356,0.\N,0.7015234089,0.8431563774,0.\H,1.2952267735,1.6633
 40805,0.\N,-0.0996427109,-1.2430320637,0.\C,1.0012102175,-0.4948572927
 ,0.\H,2.0078254848,-0.8817148248,0.\\Version=x86-Linux-G98RevA.4\State
 =1-A'\HF=-255.2591456\MP2=-255.8190773\MP3=-255.800927\MP4D=-255.81989
 85\MP4DQ=-255.8100777\MP4SDQ=-255.8216821\QCISD=-255.8233325\RMSD=1.95
 5e-09\RMSF=9.089e-05\Dipole=1.9486391,0.8737375,0.\DipoleDeriv=0.15509
 8,-0.0505785,0.,-0.2094473,-0.0636986,0.,0.,0.,-0.1424124,0.3448199,0.
 1370788,0.,0.1513541,-0.2175482,0.,0.,0.,-0.0530455,-0.5231032,-0.1492
 871,0.,-0.225358,-0.3735687,0.,0.,0.,-0.3122197,0.2297561,0.0273623,0.
 ,0.0478806,0.2792378,0.,0.,0.,0.4188336,-0.4892565,0.0839545,0.,0.0575
 19,-0.1536837,0.,0.,0.,-0.2085487,0.2214064,-0.076725,0.,0.1782979,0.4
 026536,0.,0.,0.,0.119256,0.0612454,0.0281262,0.,-0.0003015,0.1266752,0
 .,0.,0.,0.1779357\PG=CS [SG(C1H2N4)]\NImag=0\\0.40864870,0.09258720,0.
 28640546,0.,0.,0.10140281,-0.10152150,-0.07402572,0.,0.28722164,-0.000
 35371,-0.19666647,0.,-0.05200926,0.44087195,0.,0.,-0.07996556,0.,0.,0.
 09546266,-0.10041998,-0.08567577,0.,-0.11083606,0.00109433,0.,0.537819
 40,-0.02486687,-0.06272814,0.,0.04726628,-0.09559852,0.,0.21226338,0.8
 3109121,0.,0.,0.02132634,0.,0.,-0.05870380,0.,0.,0.08773818,-0.0098376
 1,-0.00035312,0.,-0.00112906,-0.02935744,0.,-0.19909901,-0.17773539,0.
 ,0.19542536,0.00810286,0.00158477,0.,0.00513267,0.01128394,0.,-0.18379
 329,-0.32885812,0.,0.19094270,0.32355636,0.,0.,0.00666586,0.,0.,-0.009
 37328,0.,0.,-0.00881227,0.,0.,0.01330824,-0.07608245,0.01840964,0.,-0.
 00819204,0.06771691,0.,-0.00595339,-0.09975455,0.,-0.00012490,0.000502
 50,0.,0.36318956,-0.04256506,-0.05286266,0.,-0.01364163,-0.10237872,0.
 ,-0.00225718,-0.08385200,0.,0.00806612,-0.00465670,0.,0.14053156,0.411
 53700,0.,0.,-0.07349286,0.,0.,0.02858068,0.,0.,0.02286663,0.,0.,0.0066
 2474,0.,0.,0.09516196,-0.11869493,0.04902473,0.,-0.06594390,0.01742695
 ,0.,-0.12712100,0.04768083,0.,0.01504231,-0.02176928,0.,-0.25823326,-0
 .10052286,0.,0.88182325,-0.02709218,0.02549259,0.,0.08843843,-0.052177
 77,0.,0.02463387,-0.25082919,0.,0.00877969,-0.00194029,0.,-0.10582173,
 -0.17893619,0.,-0.09700820,0.55007949,0.,0.,0.01469510,0.,0.,0.0191964
 9,0.,0.,-0.06427257,0.,0.,-0.00767591,0.,0.,-0.07654759,0.,0.,0.150148
 90,-0.00210238,0.00002755,0.,0.00041491,-0.00451708,0.,0.00560524,-0.0
 0485382,0.,-0.00027728,0.00088162,0.,-0.01460195,0.01039955,0.,-0.3268
 6945,0.10806379,0.,0.33782749,-0.00582496,-0.00122968,0.,-0.00114751,-
 0.00533619,0.,0.03373255,-0.00921745,0.,-0.00034278,-0.00096961,0.,-0.
 02158167,0.01115400,0.,0.10516717,-0.09169685,0.,-0.11000183,0.0972970
 4,0.,0.,0.00936401,0.,0.,0.00479801,0.,0.,-0.00014034,0.,0.,-0.0007356
 5,0.,0.,-0.00319114,0.,0.,-0.03554300,0.,0.,0.02544947\\0.00002834,0.0
 0006998,0.,-0.00006357,-0.00002887,0.,0.00009907,-0.00025426,0.,-0.000
 02954,0.00000114,0.,0.00013113,0.00004682,0.,-0.00016320,0.00020070,0.
 ,-0.00000224,-0.00003550,0.\\\@

    UPON JULIA'S CLOTHES

 WHENAS IN SILKS MY JULIA GOES,
 THEN, THEN, METHINKS, HOW SWEETLY FLOWS
 THAT LIQUEFACTION OF HER CLOTHES.

 NEXT, WHEN I CAST MINE EYES, AND SEE
 THAT BRAVE VIBRATION, EACH WAY FREE,
 O, HOW THAT GLITTERING TAKETH ME!
     -- ROBERT HERRICK, 1648
 Job cpu time:  0 days  5 hours 29 minutes 23.5 seconds.
 File lengths (MBytes):  RWF=  206 Int=    0 D2E=    0 Chk=    4 Scr=    1
 Normal termination of Gaussian 98.
