 Gaussian 03, Revision B.05,
 Gaussian 03:  SGI64-G03RevB.05  8-Nov-2003

 ------------------------
 #PBEPBE/cc-pVTZ opt freq
 ------------------------

 -----------------------------------
 1htz casno=288948 method=61 basis=6
 -----------------------------------
 Symbolic Z-matrix:
 Charge =  0 Multiplicity = 1

 SCF Done:  E(RPBE-PBE) =  -258.065109602     A.U. after   15 cycles
 SCF Done:  E(RPBE-PBE) =  -258.070664280     A.U. after   12 cycles
 SCF Done:  E(RPBE-PBE) =  -258.070824382     A.U. after   10 cycles
 SCF Done:  E(RPBE-PBE) =  -258.070837292     A.U. after    9 cycles
 SCF Done:  E(RPBE-PBE) =  -258.070845785     A.U. after    8 cycles
 SCF Done:  E(RPBE-PBE) =  -258.070846893     A.U. after    8 cycles
 Optimization completed.
    -- Stationary point found.
 Normal termination of Gaussian 03 at Fri Jun 18 18:43:28 2004.

 ------------------------------------------------------------------
 #P Geom=AllCheck Guess=Read SCRF=Check GenChk RPBEPBE/CC-pVTZ Freq
 ------------------------------------------------------------------

 1htz casno=288948 method=61 basis=6
 -----------------------------------
 Redundant internal coordinates taken from checkpoint file:
 /wrk/rdj3/pbe6/Gau-1739024.chk
 Charge =  0 Multiplicity = 1

                         Standard orientation:
 ---------------------------------------------------------------------
 Center     Atomic     Atomic              Coordinates (Angstroms)
 Number     Number      Type              X           Y           Z
 ---------------------------------------------------------------------
    1          7             0       -0.725381   -0.930392    0.000000
    2          7             0       -1.126705    0.303463    0.000000
    3          7             0        0.000000    1.058154    0.000000
    4          1             0       -0.059526    2.071275    0.000000
    5          7             0        0.642435   -1.011734    0.000000
    6          6             0        1.070668    0.237349    0.000000
    7          1             0        2.103073    0.568193    0.000000
 ---------------------------------------------------------------------

 SCF Done:  E(RPBE-PBE) =  -258.070846893     A.U. after    1 cycles

 The electronic state is 1-A'.
 Alpha  occ. eigenvalues --  -14.10117 -14.06383 -14.04757 -14.02141  -9.97645
 Alpha  occ. eigenvalues --   -1.05395  -0.86924  -0.81879  -0.62154  -0.60915
 Alpha  occ. eigenvalues --   -0.54388  -0.45230  -0.45139  -0.33395  -0.30199
 Alpha  occ. eigenvalues --   -0.28313  -0.26382  -0.24980
 Alpha virt. eigenvalues --   -0.06342  -0.03184  -0.00739   0.03768   0.10950
 Alpha virt. eigenvalues --    0.12285   0.14424   0.19820   0.24290   0.24644
 Alpha virt. eigenvalues --    0.31217   0.32676   0.35478   0.37907   0.38666

 Mulliken atomic charges:
              1
     1  N   -0.073666
     2  N   -0.079541
     3  N    0.016660
     4  H    0.165273
     5  N   -0.139207
     6  C   -0.014574
     7  H    0.125055
 Sum of Mulliken charges=   0.00000

 Dipole moment (field-independent basis, Debye):
    X=     2.3574    Y=     4.5931    Z=     0.0000  Tot=     5.1628
 Quadrupole moment (field-independent basis, Debye-Ang):
   XX=   -28.9638   YY=   -26.3365   ZZ=   -28.3485
   XY=     1.7745   XZ=     0.0000   YZ=     0.0000

  Exact polarizability:  43.110   0.953  42.500   0.000   0.000  21.154
 Approx polarizability:  89.682   0.599  94.868   0.000   0.000  37.332

                     1                      2                      3
                    A"                     A"                     A"
 Frequencies --   568.2335               673.5246               721.9717
 Red. masses --     1.6809                 2.0467                 8.1982
 Frc consts  --     0.3198                 0.5470                 2.5177
 IR Inten    --    71.5299                 5.2958                 7.6015

                     4                      5                      6
                    A"                     A'                     A'
 Frequencies --   822.0133               924.7835               969.2972
 Red. masses --     1.3826                 4.9960                 4.6083
 Frc consts  --     0.5505                 2.5174                 2.5509
 IR Inten    --    20.7022                 5.8243                 3.1209

                     7                      8                      9
                    A'                     A'                     A'
 Frequencies --   997.5896              1020.1905              1110.5282
 Red. masses --     7.7144                 3.1901                 1.9721
 Frc consts  --     4.5233                 1.9562                 1.4330
 IR Inten    --    10.2513                25.8102                15.4688

                    10                     11                     12
                    A'                     A'                     A'
 Frequencies --  1207.5583              1232.5852              1402.5990
 Red. masses --     2.4288                 7.8296                 3.1884
 Frc consts  --     2.0867                 7.0085                 3.6957
 IR Inten    --     8.6952                 4.2914                 7.2220

                    13                     14                     15
                    A'                     A'                     A'
 Frequencies --  1446.0571              3204.5839              3552.2737
 Red. masses --     3.4283                 1.0997                 1.0830
 Frc consts  --     4.2237                 6.6539                 8.0516
 IR Inten    --    12.7593                 0.8368                62.9351

 - Thermochemistry -
 -------------------
 Temperature   298.150 Kelvin.  Pressure   1.00000 Atm.
 Atom  1 has atomic number  7 and mass  14.00307

 Molecular mass:    70.02795 amu.
 Principal axes and moments of inertia in atomic units:
                           1         2         3
     EIGENVALUES --   172.92789 176.08222 349.01012
           X            0.86261   0.50587   0.00000
           Y           -0.50587   0.86261   0.00000
           Z            0.00000   0.00000   1.00000
 This molecule is an asymmetric top.
 Rotational symmetry number  1.
 Rotational temperatures (Kelvin)      0.50087     0.49189     0.24817
 Rotational constants (GHZ):          10.43638    10.24942     5.17103
 Zero-point vibrational energy     118752.0 (Joules/Mol)
                                   28.38242 (Kcal/Mol)
 Warning -- explicit consideration of   1 degrees of freedom as
           vibrations may cause significant error
 Vibrational temperatures:    817.56   969.05  1038.75  1182.69  1330.56
          (Kelvin)           1394.60  1435.31  1467.82  1597.80  1737.40
                             1773.41  2018.02  2080.55  4610.68  5110.92

 Zero-point correction=                           0.045230 (Hartree/Particle)
 Thermal correction to Energy=                    0.048772
 Thermal correction to Enthalpy=                  0.049716
 Thermal correction to Gibbs Free Energy=         0.019101
 Sum of electronic and zero-point Energies=           -258.025617
 Sum of electronic and thermal Energies=              -258.022075
 Sum of electronic and thermal Enthalpies=            -258.021131
 Sum of electronic and thermal Free Energies=         -258.051746

                     E (Thermal)             CV                S
                      KCal/Mol        Cal/Mol-Kelvin    Cal/Mol-Kelvin
 Total                   30.605             11.811             64.434
 Electronic               0.000              0.000              0.000
 Translational            0.889              2.981             38.656
 Rotational               0.889              2.981             23.878
 Vibrational             28.827              5.849              1.899
 Vibration  1             0.924              1.100              0.508

 Optimization completed.
    -- Stationary point found.
 Normal termination of Gaussian 03 at Fri Jun 18 19:53:11 2004.
