 Gaussian 03, Revision B.05,
 Gaussian 03:  SGI64-G03RevB.05  8-Nov-2003

 -----------------------
 #PBEPBE/6-31G* opt freq
 -----------------------

 -----------------------------------
 1htz casno=288948 method=61 basis=1
 -----------------------------------
 Symbolic Z-matrix:
 Charge =  0 Multiplicity = 1

 SCF Done:  E(RPBE-PBE) =  -257.971546576     A.U. after   15 cycles
 SCF Done:  E(RPBE-PBE) =  -257.979363619     A.U. after   14 cycles
 SCF Done:  E(RPBE-PBE) =  -257.979550015     A.U. after   11 cycles
 SCF Done:  E(RPBE-PBE) =  -257.979564457     A.U. after   10 cycles
 SCF Done:  E(RPBE-PBE) =  -257.979570782     A.U. after    9 cycles
 SCF Done:  E(RPBE-PBE) =  -257.979572091     A.U. after    9 cycles
 Optimization completed.
    -- Stationary point found.
 Normal termination of Gaussian 03 at Wed Feb 25 22:08:28 2004.

 -------------------------------------------------------------------
 #P Geom=AllCheck Guess=Read SCRF=Check GenChk RPBEPBE/6-31G(d) Freq
 -------------------------------------------------------------------

 1htz casno=288948 method=61 basis=1
 -----------------------------------
 Redundant internal coordinates taken from checkpoint file:
 /wrk/rdj3/pbe/Gau-122440.chk
 Charge =  0 Multiplicity = 1

                         Standard orientation:
 ---------------------------------------------------------------------
 Center     Atomic     Atomic              Coordinates (Angstroms)
 Number     Number      Type              X           Y           Z
 ---------------------------------------------------------------------
    1          7             0       -0.726240   -0.934356    0.000000
    2          7             0       -1.132444    0.306006    0.000000
    3          7             0        0.000000    1.061117    0.000000
    4          1             0       -0.062513    2.078171    0.000000
    5          7             0        0.644787   -1.015821    0.000000
    6          6             0        1.074884    0.238583    0.000000
    7          1             0        2.110486    0.571708    0.000000
 ---------------------------------------------------------------------

 SCF Done:  E(RPBE-PBE) =  -257.979572091     A.U. after    1 cycles

 The electronic state is 1-A'.
 Alpha  occ. eigenvalues --  -14.11842 -14.07746 -14.06031 -14.03473  -9.98966
 Alpha  occ. eigenvalues --   -1.04710  -0.86452  -0.81322  -0.61803  -0.60310
 Alpha  occ. eigenvalues --   -0.53893  -0.44828  -0.44231  -0.32630  -0.29421
 Alpha  occ. eigenvalues --   -0.27545  -0.25714  -0.24193
 Alpha virt. eigenvalues --   -0.05623  -0.02282   0.02632   0.07484   0.13477
 Alpha virt. eigenvalues --    0.16027   0.22902   0.28325   0.34919   0.46864
 Alpha virt. eigenvalues --    0.48302   0.54456   0.56033   0.58770   0.61759

 Mulliken atomic charges:
              1
     1  N   -0.083142
     2  N   -0.039786
     3  N   -0.399730
     4  H    0.362070
     5  N   -0.287643
     6  C    0.243411
     7  H    0.204820
 Sum of Mulliken charges=   0.00000

 Dipole moment (field-independent basis, Debye):
    X=     2.4038    Y=     4.6460    Z=     0.0000  Tot=     5.2310
 Quadrupole moment (field-independent basis, Debye-Ang):
   XX=   -28.5468   YY=   -25.8933   ZZ=   -28.1976
   XY=     1.7312   XZ=     0.0000   YZ=     0.0000

  Exact polarizability:  39.002   1.060  38.558   0.000   0.000  15.787
 Approx polarizability:  84.399   0.053  90.002   0.000   0.000  27.779

                     1                      2                      3
                    A"                     A"                     A"
 Frequencies --   554.0205               671.9319               716.3685
 Red. masses --     1.7824                 2.0089                 8.0855
 Frc consts  --     0.3223                 0.5344                 2.4447
 IR Inten    --    82.2015                 8.5260                 7.2777

                     4                      5                      6
                    A"                     A'                     A'
 Frequencies --   799.5203               931.3270               973.0175
 Red. masses --     1.3399                 4.6407                 5.1500
 Frc consts  --     0.5047                 2.3716                 2.8727
 IR Inten    --    22.7711                 4.6507                 1.6402

                     7                      8                      9
                    A'                     A'                     A'
 Frequencies --  1013.9393              1030.3823              1118.6746
 Red. masses --     6.1009                 3.7426                 1.8349
 Frc consts  --     3.6955                 2.3411                 1.3529
 IR Inten    --    13.0857                26.9288                13.5038

                    10                     11                     12
                    A'                     A'                     A'
 Frequencies --  1217.5526              1237.3024              1419.2695
 Red. masses --     2.6239                 7.0405                 3.3007
 Frc consts  --     2.2918                 6.3505                 3.9173
 IR Inten    --    10.9449                 4.3779                 7.8819

                    13                     14                     15
                    A'                     A'                     A'
 Frequencies --  1456.3204              3235.9780              3555.5443
 Red. masses --     3.3320                 1.0995                 1.0830
 Frc consts  --     4.1636                 6.7832                 8.0666
 IR Inten    --    14.7659                 0.5846                56.9878

 - Thermochemistry -
 -------------------
 Temperature   298.150 Kelvin.  Pressure   1.00000 Atm.
 Atom  1 has atomic number  7 and mass  14.00307

 Molecular mass:    70.02795 amu.
 Principal axes and moments of inertia in atomic units:
                           1         2         3
     EIGENVALUES --   174.09537 177.59288 351.68825
           X            0.85258   0.52260   0.00000
           Y           -0.52260   0.85258   0.00000
           Z            0.00000   0.00000   1.00000
 This molecule is an asymmetric top.
 Rotational symmetry number  1.
 Rotational temperatures (Kelvin)      0.49751     0.48771     0.24628
 Rotational constants (GHZ):          10.36639    10.16224     5.13165
 Zero-point vibrational energy     119214.7 (Joules/Mol)
                                   28.49301 (Kcal/Mol)
 Warning -- explicit consideration of   1 degrees of freedom as
           vibrations may cause significant error
 Vibrational temperatures:    797.11   966.76  1030.69  1150.33  1339.97
          (Kelvin)           1399.95  1458.83  1482.49  1609.52  1751.78
                             1780.20  2042.01  2095.32  4655.85  5115.63

 Zero-point correction=                           0.045406 (Hartree/Particle)
 Thermal correction to Energy=                    0.048958
 Thermal correction to Enthalpy=                  0.049902
 Thermal correction to Gibbs Free Energy=         0.019261
 Sum of electronic and zero-point Energies=           -257.934166
 Sum of electronic and thermal Energies=              -257.930614
 Sum of electronic and thermal Enthalpies=            -257.929670
 Sum of electronic and thermal Free Energies=         -257.960311

                     E (Thermal)             CV                S
                      KCal/Mol        Cal/Mol-Kelvin    Cal/Mol-Kelvin
 Total                   30.722             11.826             64.490
 Electronic               0.000              0.000              0.000
 Translational            0.889              2.981             38.656
 Rotational               0.889              2.981             23.901
 Vibrational             28.944              5.864              1.933
 Vibration  1             0.909              1.131              0.536

 Optimization completed.
    -- Stationary point found.
 Normal termination of Gaussian 03 at Wed Feb 25 22:11:59 2004.
