 Gaussian 03, Revision B.05,
 Gaussian 03:  SGI64-G03RevB.05  8-Nov-2003

 -------------------------
 #PBEPBE/6-31+G** opt freq
 -------------------------

 -----------------------------------
 1htz casno=288948 method=61 basis=4
 -----------------------------------
 Symbolic Z-matrix:
 Charge =  0 Multiplicity = 1

 SCF Done:  E(RPBE-PBE) =  -257.989065031     A.U. after   12 cycles
 SCF Done:  E(RPBE-PBE) =  -257.996723983     A.U. after   12 cycles
 SCF Done:  E(RPBE-PBE) =  -257.996902318     A.U. after   11 cycles
 SCF Done:  E(RPBE-PBE) =  -257.996927576     A.U. after   10 cycles
 SCF Done:  E(RPBE-PBE) =  -257.996938669     A.U. after    9 cycles
 SCF Done:  E(RPBE-PBE) =  -257.996940549     A.U. after    9 cycles
 Optimization completed.
    -- Stationary point found.
 Normal termination of Gaussian 03 at Thu Mar 25 13:44:28 2004.

 ----------------------------------------------------------------------
 #P Geom=AllCheck Guess=Read SCRF=Check GenChk RPBEPBE/6-31+G(d,p) Freq
 ----------------------------------------------------------------------

 1htz casno=288948 method=61 basis=4
 -----------------------------------
 Redundant internal coordinates taken from checkpoint file:
 /wrk/rdj3/pbe4/Gau-258245.chk
 Charge =  0 Multiplicity = 1

                         Standard orientation:
 ---------------------------------------------------------------------
 Center     Atomic     Atomic              Coordinates (Angstroms)
 Number     Number      Type              X           Y           Z
 ---------------------------------------------------------------------
    1          7             0       -0.726301   -0.934825    0.000000
    2          7             0       -1.131241    0.305203    0.000000
    3          7             0        0.000000    1.061848    0.000000
    4          1             0       -0.061366    2.078321    0.000000
    5          7             0        0.642697   -1.015403    0.000000
    6          6             0        1.075579    0.239253    0.000000
    7          1             0        2.111801    0.568398    0.000000
 ---------------------------------------------------------------------

 SCF Done:  E(RPBE-PBE) =  -257.996940549     A.U. after    1 cycles

 The electronic state is 1-A'.
 Alpha  occ. eigenvalues --  -14.13061 -14.09255 -14.07586 -14.05054 -10.00105
 Alpha  occ. eigenvalues --   -1.06181  -0.87808  -0.82677  -0.62964  -0.61593
 Alpha  occ. eigenvalues --   -0.54977  -0.45929  -0.45534  -0.34046  -0.30817
 Alpha  occ. eigenvalues --   -0.28863  -0.27202  -0.25704
 Alpha virt. eigenvalues --   -0.07195  -0.03999  -0.03125   0.00706   0.02990
 Alpha virt. eigenvalues --    0.04058   0.05560   0.06982   0.09023   0.11388
 Alpha virt. eigenvalues --    0.11827   0.12717   0.14447   0.15645   0.16128

 Mulliken atomic charges:
              1
     1  N   -0.022984
     2  N   -0.016633
     3  N   -0.258664
     4  H    0.336014
     5  N   -0.218397
     6  C   -0.009970
     7  H    0.190634
 Sum of Mulliken charges=   0.00000

 Dipole moment (field-independent basis, Debye):
    X=     2.5640    Y=     4.8161    Z=     0.0000  Tot=     5.4561
 Quadrupole moment (field-independent basis, Debye-Ang):
   XX=   -29.6065   YY=   -26.9519   ZZ=   -29.0258
   XY=     1.9036   XZ=     0.0000   YZ=     0.0000

  Exact polarizability:  46.378   0.452  46.002   0.000   0.000  24.848
 Approx polarizability:  91.744  -0.273  97.437   0.000   0.000  40.448

                     1                      2                      3
                    A"                     A"                     A"
 Frequencies --   558.8454               667.0797               710.2138
 Red. masses --     1.8551                 1.9213                 8.2611
 Frc consts  --     0.3414                 0.5037                 2.4551
 IR Inten    --    77.1802                10.2622                 7.5010

                     4                      5                      6
                    A"                     A'                     A'
 Frequencies --   803.1730               930.5048               971.8382
 Red. masses --     1.3366                 4.5747                 5.4190
 Frc consts  --     0.5080                 2.3337                 3.0155
 IR Inten    --    27.7393                 4.5737                 2.1817

                     7                      8                      9
                    A'                     A'                     A'
 Frequencies --  1010.7513              1028.8127              1112.4891
 Red. masses --     5.4403                 3.9808                 1.8298
 Frc consts  --     3.2746                 2.4825                 1.3343
 IR Inten    --    13.5907                27.5299                13.6959

                    10                     11                     12
                    A'                     A'                     A'
 Frequencies --  1215.2695              1235.6978              1411.1534
 Red. masses --     2.4424                 8.3929                 3.2979
 Frc consts  --     2.1253                 7.5507                 3.8693
 IR Inten    --     9.5376                 6.5088                 8.4467

                    13                     14                     15
                    A'                     A'                     A'
 Frequencies --  1450.3324              3232.2513              3569.3508
 Red. masses --     3.3762                 1.0998                 1.0835
 Frc consts  --     4.1843                 6.7700                 8.1329
 IR Inten    --    14.3456                 1.9426                73.4601

 - Thermochemistry -
 -------------------
 Temperature   298.150 Kelvin.  Pressure   1.00000 Atm.
 Atom  1 has atomic number  7 and mass  14.00307

 Molecular mass:    70.02795 amu.
 Principal axes and moments of inertia in atomic units:
                           1         2         3
     EIGENVALUES --   174.28973 177.27269 351.56242
           X            0.85185   0.52379   0.00000
           Y           -0.52379   0.85185   0.00000
           Z            0.00000   0.00000   1.00000
 This molecule is an asymmetric top.
 Rotational symmetry number  1.
 Rotational temperatures (Kelvin)      0.49695     0.48859     0.24637
 Rotational constants (GHZ):          10.35483    10.18059     5.13349
 Zero-point vibrational energy     119074.9 (Joules/Mol)
                                   28.45958 (Kcal/Mol)
 Warning -- explicit consideration of   1 degrees of freedom as
           vibrations may cause significant error
 Vibrational temperatures:    804.05   959.78  1021.84  1155.59  1338.79
          (Kelvin)           1398.26  1454.24  1480.23  1600.62  1748.50
                             1777.89  2030.33  2086.70  4650.48  5135.49

 Zero-point correction=                           0.045353 (Hartree/Particle)
 Thermal correction to Energy=                    0.048907
 Thermal correction to Enthalpy=                  0.049851
 Thermal correction to Gibbs Free Energy=         0.019207
 Sum of electronic and zero-point Energies=           -257.951587
 Sum of electronic and thermal Energies=              -257.948033
 Sum of electronic and thermal Enthalpies=            -257.947089
 Sum of electronic and thermal Free Energies=         -257.977733

                     E (Thermal)             CV                S
                      KCal/Mol        Cal/Mol-Kelvin    Cal/Mol-Kelvin
 Total                   30.690             11.850             64.495
 Electronic               0.000              0.000              0.000
 Translational            0.889              2.981             38.656
 Rotational               0.889              2.981             23.900
 Vibrational             28.912              5.889              1.939
 Vibration  1             0.914              1.120              0.526

 Optimization completed.
    -- Stationary point found.
 Normal termination of Gaussian 03 at Thu Mar 25 13:51:40 2004.
