 Gaussian 09, Revision B.01,
 Gaussian 09:  EM64L-G09RevB.01 12-Aug-2010

 ------------------------
 #MP3/6-31G(d,p) opt freq
 ------------------------

 -----------------------------------------------------------------
 1htz 1H-Tetrazole casno=288948 state=1 config=1 method=62 basis=4
 -----------------------------------------------------------------
 Symbolic Z-matrix:
 Charge =  0 Multiplicity = 1

 SCF Done:  E(RHF) =  -256.760119294     A.U. after   15 cycles
 E2 =    -0.7847780553D+00 EUMP2 =    -0.25754489734948D+03
 SCF Done:  E(RHF) =  -256.756292047     A.U. after   13 cycles
 E2 =    -0.7950194318D+00 EUMP2 =    -0.25755131147927D+03
 SCF Done:  E(RHF) =  -256.755843923     A.U. after   12 cycles
 E2 =    -0.7957392793D+00 EUMP2 =    -0.25755158320220D+03
 SCF Done:  E(RHF) =  -256.755684796     A.U. after   11 cycles
 E2 =    -0.7960055230D+00 EUMP2 =    -0.25755169031903D+03
 SCF Done:  E(RHF) =  -256.755782911     A.U. after   10 cycles
 E2 =    -0.7958836098D+00 EUMP2 =    -0.25755166652110D+03
 Optimization completed.
    -- Stationary point found.
 Normal termination of Gaussian 09 at Thu Sep  6 15:06:01 2012.

 ----------------------------------------------------------------------
 #N Geom=AllCheck Guess=TCheck SCRF=Check GenChk RMP3(FC)/6-31G(d,p) Fr
 eq
 ----------------------------------------------------------------------

 1htz 1H-Tetrazole casno=288948 state=1 config=1 method=62 basis=4
 -----------------------------------------------------------------
 Redundant internal coordinates taken from checkpoint file:
 /tmp/rdj3/g09-26718/Gau-6076.chk
 Charge =  0 Multiplicity = 1

                         Standard orientation:
 ---------------------------------------------------------------------
 Center     Atomic      Atomic             Coordinates (Angstroms)
 Number     Number       Type             X           Y           Z
 ---------------------------------------------------------------------
      1          7           0       -0.724684   -0.925421    0.000000
      2          7           0       -1.118399    0.305190    0.000000
      3          7           0        0.000000    1.053258    0.000000
      4          1           0       -0.057633    2.054536    0.000000
      5          7           0        0.638243   -1.006967    0.000000
      6          6           0        1.067067    0.233836    0.000000
      7          1           0        2.089107    0.560028    0.000000
 ---------------------------------------------------------------------

 SCF Done:  E(RHF) =  -256.755782911     A.U. after    1 cycles
 E2 =    -0.7958836078D+00 EUMP2 =    -0.25755166651908D+03
 SCF Done:  E(RHF) =  -256.755801692     A.U. after   10 cycles
 E2 =    -0.7958714275D+00 EUMP2 =    -0.25755167311915D+03
 SCF Done:  E(RHF) =  -256.755762434     A.U. after   10 cycles
 E2 =    -0.7958958750D+00 EUMP2 =    -0.25755165830891D+03
 SCF Done:  E(RHF) =  -256.755873673     A.U. after    9 cycles
 E2 =    -0.7957492474D+00 EUMP2 =    -0.25755162292067D+03
 SCF Done:  E(RHF) =  -256.755689805     A.U. after   10 cycles
 E2 =    -0.7960181337D+00 EUMP2 =    -0.25755170793902D+03
 E2 =    -0.7958836963D+00 EUMP2 =    -0.25755166630931D+03
 E2 =    -0.7957896770D+00 EUMP2 =    -0.25755164136802D+03
 E2 =    -0.7959777212D+00 EUMP2 =    -0.25755168968458D+03
 E2 =    -0.7959963856D+00 EUMP2 =    -0.25755170488958D+03
 E2 =    -0.7957708818D+00 EUMP2 =    -0.25755162622674D+03
 E2 =    -0.7958836955D+00 EUMP2 =    -0.25755166632747D+03
 E2 =    -0.7958940645D+00 EUMP2 =    -0.25755166841855D+03
 E2 =    -0.7958732179D+00 EUMP2 =    -0.25755166236715D+03
 E2 =    -0.7959108012D+00 EUMP2 =    -0.25755166354565D+03
 E2 =    -0.7958566028D+00 EUMP2 =    -0.25755166567147D+03
 E2 =    -0.7958809815D+00 EUMP2 =    -0.25755166533352D+03
 E2 =    -0.7958862879D+00 EUMP2 =    -0.25755166748609D+03
 E2 =    -0.7959115334D+00 EUMP2 =    -0.25755167523197D+03
 E2 =    -0.7958556918D+00 EUMP2 =    -0.25755165598262D+03
 E2 =    -0.7958836168D+00 EUMP2 =    -0.25755166649273D+03
 E2 =    -0.7959161028D+00 EUMP2 =    -0.25755166513733D+03
 E2 =    -0.7958511827D+00 EUMP2 =    -0.25755166641309D+03
 E2 =    -0.7958004294D+00 EUMP2 =    -0.25755164182061D+03
 E2 =    -0.7959669142D+00 EUMP2 =    -0.25755168891115D+03
 E2 =    -0.7958836759D+00 EUMP2 =    -0.25755166633099D+03
 SCF Done:  E(RHF) =  -256.755737137     A.U. after    9 cycles
 E2 =    -0.7959403298D+00 EUMP2 =    -0.25755167746703D+03
 SCF Done:  E(RHF) =  -256.755825087     A.U. after    9 cycles
 E2 =    -0.7958270916D+00 EUMP2 =    -0.25755165217872D+03
 SCF Done:  E(RHF) =  -256.755752618     A.U. after   10 cycles
 E2 =    -0.7959294954D+00 EUMP2 =    -0.25755168211366D+03
 SCF Done:  E(RHF) =  -256.755810626     A.U. after   10 cycles
 E2 =    -0.7958377055D+00 EUMP2 =    -0.25755164833130D+03
 SCF Done:  E(RHF) =  -256.755782565     A.U. after    7 cycles
 E2 =    -0.7958837275D+00 EUMP2 =    -0.25755166629293D+03
 SCF Done:  E(RHF) =  -256.755775634     A.U. after    7 cycles
 E2 =    -0.7958930114D+00 EUMP2 =    -0.25755166864524D+03
 SCF Done:  E(RHF) =  -256.755788833     A.U. after    8 cycles
 E2 =    -0.7958742273D+00 EUMP2 =    -0.25755166305978D+03
 SCF Done:  E(RHF) =  -256.755779994     A.U. after    8 cycles
 E2 =    -0.7958876422D+00 EUMP2 =    -0.25755166763639D+03
 SCF Done:  E(RHF) =  -256.755785492     A.U. after    8 cycles
 E2 =    -0.7958796021D+00 EUMP2 =    -0.25755166509410D+03
 SCF Done:  E(RHF) =  -256.755782855     A.U. after    6 cycles
 E2 =    -0.7958836219D+00 EUMP2 =    -0.25755166647657D+03

 Alpha  occ. eigenvalues --  -15.68891 -15.66890 -15.65087 -15.60848 -11.34121
 Alpha  occ. eigenvalues --   -1.49429  -1.25605  -1.19523  -0.90773  -0.88905
 Alpha  occ. eigenvalues --   -0.80002  -0.67650  -0.67466  -0.56695  -0.47710
 Alpha  occ. eigenvalues --   -0.47042  -0.45328  -0.41728
 Alpha virt. eigenvalues --    0.13895   0.18847   0.19866   0.25289   0.36743
 Alpha virt. eigenvalues --    0.38167   0.47474   0.50003   0.64821   0.73169
 Alpha virt. eigenvalues --    0.73915   0.82399   0.82509   0.89419   0.91023

 Mulliken atomic charges:
              1
     1  N   -0.081910
     2  N   -0.033919
     3  N   -0.390559
     4  H    0.332489
     5  N   -0.307618
     6  C    0.296807
     7  H    0.184710
 Sum of Mulliken atomic charges =   0.00000

 Dipole moment (field-independent basis, Debye):
    X=              2.5195    Y=              4.8569    Z=              0.0008  Tot=              5.4715
 Quadrupole moment (field-independent basis, Debye-Ang):
   XX=            -29.0473   YY=            -26.5520   ZZ=            -28.4858
   XY=              1.8520   XZ=              0.0020   YZ=              0.0006

                     1                      2                      3
                    A"                     A"                     A"
 Frequencies --   587.4859               702.4593               745.6465
 Red. masses --     1.9977                 1.9814                 6.3127
 Frc consts  --     0.4062                 0.5761                 2.0679
 IR Inten    --    89.5358                13.7337                12.4747

                     4                      5                      6
                    A"                     A'                     A'
 Frequencies --   874.8937              1003.4368              1036.0142
 Red. masses --     1.3056                 5.2345                 7.1322
 Frc consts  --     0.5888                 3.1053                 4.5103
 IR Inten    --    19.5252                 1.5819                 1.3936

                     7                      8                      9
                    A'                     A'                     A'
 Frequencies --  1107.8847              1132.0947              1189.8726
 Red. masses --     5.9959                 2.7211                 1.7686
 Frc consts  --     4.3361                 2.0547                 1.4753
 IR Inten    --    20.8985                25.8430                12.2612

                    10                     11                     12
                    A'                     A'                     A'
 Frequencies --  1327.0981              1361.3811              1546.5177
 Red. masses --     3.0214                 7.4324                 2.9346
 Frc consts  --     3.1352                 8.1160                 4.1353
 IR Inten    --     0.4885                17.4718                19.0491

                    13                     14                     15
                    A'                     A'                     A'
 Frequencies --  1582.7736              3399.1459              3803.5832
 Red. masses --     3.6077                 1.1012                 1.0837
 Frc consts  --     5.3250                 7.4964                 9.2374
 IR Inten    --    18.8444                 1.0266               118.8460

 - Thermochemistry -
 -------------------
 Temperature   298.150 Kelvin.  Pressure   1.00000 Atm.
 Atom     1 has atomic number  7 and mass  14.00307

 Molecular mass:    70.02795 amu.
 Principal axes and moments of inertia in atomic units:
                           1         2         3
     Eigenvalues --   171.09079 174.37626 345.46706
           X            0.85361   0.52092   0.00000
           Y           -0.52092   0.85361   0.00000
           Z            0.00000   0.00000   1.00000
 This molecule is an asymmetric top.
 Rotational symmetry number  1.
 Rotational temperatures (Kelvin)      0.50624     0.49671     0.25072
 Rotational constants (GHZ):          10.54844    10.34970     5.22406
 Zero-point vibrational energy     128002.1 (Joules/Mol)
                                   30.59325 (Kcal/Mol)
 Warning -- explicit consideration of   1 degrees of freedom as
           vibrations may cause significant error
 Vibrational temperatures:    845.26  1010.68  1072.82  1258.78  1443.72
          (Kelvin)           1490.59  1594.00  1628.83  1711.96  1909.40
                             1958.72  2225.09  2277.26  4890.61  5472.50

 Zero-point correction=                           0.048753 (Hartree/Particle)
 Thermal correction to Energy=                    0.052178
 Thermal correction to Enthalpy=                  0.053122
 Thermal correction to Gibbs Free Energy=         0.022674
 Sum of electronic and zero-point Energies=           -257.501049
 Sum of electronic and thermal Energies=              -257.497625
 Sum of electronic and thermal Enthalpies=            -257.496680
 Sum of electronic and thermal Free Energies=         -257.527129

                     E (Thermal)             CV                S
                      KCal/Mol        Cal/Mol-Kelvin    Cal/Mol-Kelvin
 Total                   32.742             10.951             64.084
 Electronic               0.000              0.000              0.000
 Translational            0.889              2.981             38.656
 Rotational               0.889              2.981             23.848
 Vibrational             30.965              4.990              1.580
 Vibration     1          0.945              1.058              0.472

 Optimization completed.
    -- Stationary point found.
 Normal termination of Gaussian 09 at Thu Sep  6 15:26:00 2012.
