 Gaussian 03, Revision C.02,
 Gaussian 03:  SGI64-G03RevC.02 12-Jun-2004

 --------------------
 #MP3/6-31G* opt freq
 --------------------

 ----------------------------------------------------------
 1H tetrazole c CH-NH-N=N-N= casno=288948 method=62 basis=1
 ----------------------------------------------------------
 Symbolic Z-matrix:
 Charge =  0 Multiplicity = 1

 SCF Done:  E(RHF) =  -256.754076242     A.U. after   15 cycles
 SCF Done:  E(RHF) =  -256.750011859     A.U. after   13 cycles
 SCF Done:  E(RHF) =  -256.749577724     A.U. after   12 cycles
 SCF Done:  E(RHF) =  -256.749411124     A.U. after   11 cycles
 SCF Done:  E(RHF) =  -256.749519029     A.U. after   10 cycles
 Optimization completed.
    -- Stationary point found.
 Normal termination of Gaussian 03 at Sat Jan  8 22:19:49 2005.

 --------------------------------------------------------------------
 #N Geom=AllCheck Guess=Read SCRF=Check GenChk RMP3(FC)/6-31G(d) Freq
 --------------------------------------------------------------------

 1H tetrazole c CH-NH-N=N-N= casno=288948 method=62 basis=1
 ----------------------------------------------------------
 Redundant internal coordinates taken from checkpoint file:
 /chkpnt/Gau-760377.chk
 Charge =  0 Multiplicity = 1

                         Standard orientation:
 ---------------------------------------------------------------------
 Center     Atomic     Atomic              Coordinates (Angstroms)
 Number     Number      Type              X           Y           Z
 ---------------------------------------------------------------------
    1          7             0       -0.724786   -0.926061    0.000000
    2          7             0       -1.118446    0.304941    0.000000
    3          7             0        0.000000    1.053057    0.000000
    4          1             0       -0.063099    2.060173    0.000000
    5          7             0        0.638146   -1.006963    0.000000
    6          6             0        1.067233    0.234167    0.000000
    7          1             0        2.095300    0.560008    0.000000
 ---------------------------------------------------------------------

 SCF Done:  E(RHF) =  -256.749519029     A.U. after    1 cycles
 SCF Done:  E(RHF) =  -256.749538411     A.U. after   10 cycles
 SCF Done:  E(RHF) =  -256.749497951     A.U. after   10 cycles
 SCF Done:  E(RHF) =  -256.749610484     A.U. after   10 cycles
 SCF Done:  E(RHF) =  -256.749425234     A.U. after   10 cycles
 SCF Done:  E(RHF) =  -256.749481488     A.U. after    9 cycles
 SCF Done:  E(RHF) =  -256.749552995     A.U. after    9 cycles
 SCF Done:  E(RHF) =  -256.749490421     A.U. after   10 cycles
 SCF Done:  E(RHF) =  -256.749545065     A.U. after   10 cycles
 SCF Done:  E(RHF) =  -256.749518682     A.U. after    7 cycles
 SCF Done:  E(RHF) =  -256.749502881     A.U. after    7 cycles
 SCF Done:  E(RHF) =  -256.749533845     A.U. after    7 cycles
 SCF Done:  E(RHF) =  -256.749513923     A.U. after    8 cycles
 SCF Done:  E(RHF) =  -256.749523797     A.U. after    8 cycles
 SCF Done:  E(RHF) =  -256.749518969     A.U. after    6 cycles

 Alpha  occ. eigenvalues --  -15.68962 -15.66893 -15.65099 -15.60847 -11.34189
 Alpha  occ. eigenvalues --   -1.49445  -1.25571  -1.19508  -0.90679  -0.88907
 Alpha  occ. eigenvalues --   -0.79956  -0.67593  -0.67470  -0.56720  -0.47718
 Alpha  occ. eigenvalues --   -0.47052  -0.45317  -0.41723
 Alpha virt. eigenvalues --    0.13979   0.18873   0.19693   0.25147   0.36783
 Alpha virt. eigenvalues --    0.38228   0.47560   0.49984   0.64846   0.73703
 Alpha virt. eigenvalues --    0.73893   0.82410   0.82742   0.89555   0.91831

 Mulliken atomic charges:
              1
     1  N   -0.082269
     2  N   -0.028050
     3  N   -0.469057
     4  H    0.410978
     5  N   -0.301846
     6  C    0.233755
     7  H    0.236490
 Sum of Mulliken charges=   0.00000

 Dipole moment (field-independent basis, Debye):
    X=     2.5596    Y=     4.9223    Z=     0.0008  Tot=     5.5480
 Quadrupole moment (field-independent basis, Debye-Ang):
   XX=   -28.9671   YY=   -26.4568   ZZ=   -28.5481
   XY=     1.8685   XZ=     0.0021   YZ=     0.0006

                     1                      2                      3
                    A"                     A"                     A"
 Frequencies --   579.9845               700.9394               745.7647
 Red. masses --     1.8961                 1.9957                 7.0521
 Frc consts  --     0.3758                 0.5777                 2.3109
 IR Inten    --    99.1287                11.8945                10.8936

                     4                      5                      6
                    A"                     A'                     A'
 Frequencies --   863.3804              1003.5531              1037.3974
 Red. masses --     1.3184                 5.0718                 7.1800
 Frc consts  --     0.5790                 3.0095                 4.5527
 IR Inten    --    22.8023                 1.7905                 1.5524

                     7                      8                      9
                    A'                     A'                     A'
 Frequencies --  1108.7720              1132.0296              1189.9705
 Red. masses --     5.9162                 2.6514                 1.7551
 Frc consts  --     4.2852                 2.0019                 1.4643
 IR Inten    --    21.5536                27.5622                12.7359

                    10                     11                     12
                    A'                     A'                     A'
 Frequencies --  1323.8709              1358.5963              1537.2173
 Red. masses --     2.9191                 8.1196                 2.9800
 Frc consts  --     3.0143                 8.8301                 4.1489
 IR Inten    --     0.2991                18.5374                19.4352

                    13                     14                     15
                    A'                     A'                     A'
 Frequencies --  1575.4465              3361.0293              3729.0365
 Red. masses --     3.8261                 1.1020                 1.0842
 Frc consts  --     5.5952                 7.3344                 8.8832
 IR Inten    --    18.5658                 1.3725               118.6148

 - Thermochemistry -
 -------------------
 Temperature   298.150 Kelvin.  Pressure   1.00000 Atm.
 Atom  1 has atomic number  7 and mass  14.00307

 Molecular mass:    70.02795 amu.
 Principal axes and moments of inertia in atomic units:
                           1         2         3
     EIGENVALUES --   171.23822 174.46457 345.70280
           X            0.85593   0.51709   0.00000
           Y           -0.51709   0.85593   0.00000
           Z            0.00000   0.00000   1.00000
 This molecule is an asymmetric top.
 Rotational symmetry number  1.
 Rotational temperatures (Kelvin)      0.50581     0.49646     0.25054
 Rotational constants (GHZ):          10.53936    10.34446     5.22050
 Zero-point vibrational energy     127085.2 (Joules/Mol)
                                   30.37409 (Kcal/Mol)
 Warning -- explicit consideration of   1 degrees of freedom as
           vibrations may cause significant error
 Vibrational temperatures:    834.47  1008.49  1072.99  1242.21  1443.89
          (Kelvin)           1492.58  1595.27  1628.74  1712.10  1904.75
                             1954.71  2211.71  2266.71  4835.77  5365.25

 Zero-point correction=                           0.048404 (Hartree/Particle)
 Thermal correction to Energy=                    0.051836
 Thermal correction to Enthalpy=                  0.052781
 Thermal correction to Gibbs Free Energy=         0.022320
 Sum of electronic and zero-point Energies=           -257.483789
 Sum of electronic and thermal Energies=              -257.480357
 Sum of electronic and thermal Enthalpies=            -257.479413
 Sum of electronic and thermal Free Energies=         -257.509873

                     E (Thermal)             CV                S
                      KCal/Mol        Cal/Mol-Kelvin    Cal/Mol-Kelvin
 Total                   32.528             10.991             64.109
 Electronic               0.000              0.000              0.000
 Translational            0.889              2.981             38.656
 Rotational               0.889              2.981             23.850
 Vibrational             30.750              5.029              1.603
 Vibration  1             0.937              1.075              0.485

 Optimization completed.
    -- Stationary point found.
 Normal termination of Gaussian 03 at Sun Jan  9 02:28:59 2005.
