 Gaussian 09, Revision A.02,
 Gaussian 09:  AM64L-G09RevA.02 11-Jun-2009

 ------
 #G3MP2
 ------

 -----------------------------------------------------------------
 1htz 1H-Tetrazole casno=288948 state=1 config=1 method=67 basis=0
 -----------------------------------------------------------------
 Symbolic Z-matrix:
 Charge =  0 Multiplicity = 1

 SCF Done:  E(RHF) =  -256.754076242     A.U. after   15 cycles
 Optimization completed.
    -- Stationary point found.
 Normal termination of Gaussian 09 at Thu Jul  8 15:16:50 2010.

 -------------------------------------------------------
 #N Geom=AllCheck Guess=TCheck SCRF=Check HF/GTBas1 Freq
 -------------------------------------------------------

 1htz 1H-Tetrazole casno=288948 state=1 config=1 method=67 basis=0
 -----------------------------------------------------------------
 Redundant internal coordinates taken from checkpoint file:
 /gaussian/Gau-26634.chk
 Charge =  0 Multiplicity = 1

 SCF Done:  E(RHF) =  -256.754076242     A.U. after    1 cycles

  Exact polarizability:  34.273   0.712  34.627   0.000   0.000  15.169
 Approx polarizability:  35.241   0.271  37.688   0.000   0.000  16.765

                     1                      2                      3
                    A"                     A"                     A"
 Frequencies --   623.6162               752.6045               815.3864
 Red. masses --     1.6225                 2.0911                 9.3328
 Frc consts  --     0.3718                 0.6978                 3.6558
 IR Inten    --   131.2050                 7.0647                 8.7900
 Raman Activ --     0.5384                 0.3360                 0.0763

                     4                      5                      6
                    A"                     A'                     A'
 Frequencies --  1010.4120              1092.9716              1114.8763
 Red. masses --     1.3784                 4.8435                 7.2254
 Frc consts  --     0.8291                 3.4090                 5.2913
 IR Inten    --     9.2859                 1.9712                 1.6746
 Raman Activ --     0.4595                 2.2584                 2.6735

                     7                      8                      9
                    A'                     A'                     A'
 Frequencies --  1181.9138              1203.6567              1262.1020
 Red. masses --     3.5666                 2.8650                 2.3056
 Frc consts  --     2.9355                 2.4456                 2.1638
 IR Inten    --    24.0752                35.5541                18.6191
 Raman Activ --     5.0167                 2.4216                 7.5125

                    10                     11                     12
                    A'                     A'                     A'
 Frequencies --  1429.3172              1548.5303              1628.8481
 Red. masses --     2.7359                 5.7613                 3.2612
 Frc consts  --     3.2931                 8.1398                 5.0978
 IR Inten    --     1.1130                37.7350                11.4749
 Raman Activ --    10.2223                16.8122                 7.6954

                    13                     14                     15
                    A'                     A'                     A'
 Frequencies --  1721.4438              3495.8488              3924.7786
 Red. masses --     3.7994                 1.1041                 1.0854
 Frc consts  --     6.6337                 7.9499                 9.8508
 IR Inten    --    25.5387                 0.2919               139.0891
 Raman Activ --     1.5551                63.3941                62.7140

 - Thermochemistry -
 -------------------
 Temperature   298.150 Kelvin.  Pressure   1.00000 Atm.
 Atom     1 has atomic number  7 and mass  14.00307

 Molecular mass:    70.02795 amu.
 Principal axes and moments of inertia in atomic units:
                           1         2         3
     Eigenvalues --   165.27139 168.12699 333.39837
           X            0.93999   0.34119   0.00000
           Y           -0.34119   0.93999   0.00000
           Z            0.00000   0.00000   1.00000
 This molecule is an asymmetric top.
 Rotational symmetry number  1.
 Rotational temperatures (Kelvin)      0.52407     0.51517     0.25979
 Rotational constants (GHZ):          10.91986    10.73439     5.41317
 Zero-point vibrational energy     136412.0 (Joules/Mol)
                                   32.60325 (Kcal/Mol)
 Vibrational temperatures:    897.24  1082.83  1173.16  1453.76  1572.54
          (Kelvin)           1604.06  1700.51  1731.79  1815.88  2056.47
                             2227.99  2343.55  2476.77  5029.74  5646.87

 Zero-point correction=                           0.051957 (Hartree/Particle)
 Thermal correction to Energy=                    0.055251
 Thermal correction to Enthalpy=                  0.056196
 Thermal correction to Gibbs Free Energy=         0.025968
 Sum of electronic and zero-point Energies=           -256.702120
 Sum of electronic and thermal Energies=              -256.698825
 Sum of electronic and thermal Enthalpies=            -256.697881
 Sum of electronic and thermal Free Energies=         -256.728109

                     E (Thermal)             CV                S
                      KCal/Mol        Cal/Mol-Kelvin    Cal/Mol-Kelvin
 Total                   34.671             10.048             63.620
 Electronic               0.000              0.000              0.000
 Translational            0.889              2.981             38.656
 Rotational               0.889              2.981             23.742
 Vibrational             32.893              4.087              1.222

 Optimization completed.
    -- Stationary point found.
 Normal termination of Gaussian 09 at Thu Jul  8 15:17:10 2010.

 ------------------------------------------------------------------
 #N Geom=AllCheck Guess=TCheck SCRF=Check MP2(Full)/GTBas1 Opt=RCFC
 ------------------------------------------------------------------

 1htz 1H-Tetrazole casno=288948 state=1 config=1 method=67 basis=0
 -----------------------------------------------------------------
 Redundant internal coordinates taken from checkpoint file:
 /gaussian/Gau-26634.chk
 Charge =  0 Multiplicity = 1

 SCF Done:  E(RHF) =  -256.754076242     A.U. after    1 cycles
 E2 =    -0.7928634946D+00 EUMP2 =    -0.25754693973648D+03
 SCF Done:  E(RHF) =  -256.748437394     A.U. after   13 cycles
 E2 =    -0.8056329845D+00 EUMP2 =    -0.25755407037850D+03
 SCF Done:  E(RHF) =  -256.745160066     A.U. after   12 cycles
 E2 =    -0.8092583647D+00 EUMP2 =    -0.25755441843074D+03
 SCF Done:  E(RHF) =  -256.744986160     A.U. after   11 cycles
 E2 =    -0.8094416473D+00 EUMP2 =    -0.25755442780708D+03
 SCF Done:  E(RHF) =  -256.744974815     A.U. after   10 cycles
 E2 =    -0.8094537076D+00 EUMP2 =    -0.25755442852272D+03
 Optimization completed.
    -- Stationary point found.
 Normal termination of Gaussian 09 at Thu Jul  8 15:17:58 2010.

 --------------------------------------------------------------
 #N Geom=AllCheck Guess=TCheck SCRF=Check QCISD(T,FrzG3)/GTBas1
 --------------------------------------------------------------

 1htz 1H-Tetrazole casno=288948 state=1 config=1 method=67 basis=0
 -----------------------------------------------------------------
 Redundant internal coordinates taken from checkpoint file:
 /gaussian/Gau-26634.chk
 Charge =  0 Multiplicity = 1

 SCF Done:  E(RHF) =  -256.744974815     A.U. after    1 cycles
 E2 =    -0.7907629725D+00 EUMP2 =    -0.25753573778766D+03
 Normal termination of Gaussian 09 at Thu Jul  8 15:19:58 2010.

 -------------------------------------------------------------
 #N Geom=AllCheck Guess=TCheck SCRF=Check MP2=FrzG3/GTMP2Large
 -------------------------------------------------------------

 1htz 1H-Tetrazole casno=288948 state=1 config=1 method=67 basis=0
 -----------------------------------------------------------------
 Redundant internal coordinates taken from checkpoint file:
 /gaussian/Gau-26634.chk
 Charge =  0 Multiplicity = 1

                         Standard orientation:
 ---------------------------------------------------------------------
 Center     Atomic      Atomic             Coordinates (Angstroms)
 Number     Number       Type             X           Y           Z
 ---------------------------------------------------------------------
      1          7           0       -0.721327   -0.940240    0.000000
      2          7           0       -1.126772    0.317171    0.000000
      3          7           0        0.000000    1.054873    0.000000
      4          1           0       -0.061248    2.067144    0.000000
      5          7           0        0.638593   -1.013230    0.000000
      6          6           0        1.071418    0.239147    0.000000
      7          1           0        2.099283    0.567956    0.000000
 ---------------------------------------------------------------------

 SCF Done:  E(RHF) =  -256.831595045     A.U. after   14 cycles
 E2 =    -0.9607901762D+00 EUMP2 =    -0.25779238522150D+03

 The electronic state is 1-A'.
 Alpha  occ. eigenvalues --  -15.68801 -15.66816 -15.65385 -15.61041 -11.34173
 Alpha  occ. eigenvalues --   -1.48620  -1.25818  -1.18674  -0.90995  -0.88981
 Alpha  occ. eigenvalues --   -0.79789  -0.67626  -0.67488  -0.56890  -0.48804
 Alpha  occ. eigenvalues --   -0.47437  -0.45825  -0.41473
 Alpha virt. eigenvalues --    0.02414   0.04954   0.08676   0.09525   0.11409
 Alpha virt. eigenvalues --    0.12379   0.14883   0.16718   0.16785   0.18797
 Alpha virt. eigenvalues --    0.19568   0.20226   0.21768   0.22937   0.24416

 Mulliken atomic charges:
              1
     1  N   -0.000525
     2  N   -0.045658
     3  N   -0.123423
     4  H    0.222425
     5  N   -0.314783
     6  C    0.104608
     7  H    0.157356
 Sum of Mulliken atomic charges =   0.00000

 Dipole moment (field-independent basis, Debye):
    X=              2.7380    Y=              4.9719    Z=              0.0000  Tot=              5.6760
 Quadrupole moment (field-independent basis, Debye-Ang):
   XX=            -29.0764   YY=            -26.7032   ZZ=            -29.2827
   XY=              2.1259   XZ=              0.0000   YZ=              0.0000

 Normal termination of Gaussian 09 at Thu Jul  8 15:23:21 2010.
