 Gaussian 09, Revision B.01,
 Gaussian 09:  EM64L-G09RevB.01 12-Aug-2010

 ----------------------------------------------------
 #B3LYP/aug-cc-pVTZ opt freq integral(grid=ultrafine)
 ----------------------------------------------------

 -----------------------------------------------------------------
 1htz 1H-Tetrazole casno=288948 state=1 config=1 method=2 basis=20
 -----------------------------------------------------------------
 Symbolic Z-matrix:
 Charge =  0 Multiplicity = 1

 SCF Done:  E(RB3LYP) =  -258.347711364     A.U. after   12 cycles
 SCF Done:  E(RB3LYP) =  -258.350441145     A.U. after   10 cycles
 SCF Done:  E(RB3LYP) =  -258.350498751     A.U. after    9 cycles
 SCF Done:  E(RB3LYP) =  -258.350516237     A.U. after    9 cycles
 SCF Done:  E(RB3LYP) =  -258.350520088     A.U. after    7 cycles
 Optimization completed.
    -- Stationary point found.
 Normal termination of Gaussian 09 at Thu Mar  8 15:53:04 2012.

 ----------------------------------------------------------------------
 #N Geom=AllCheck Guess=TCheck SCRF=Check GenChk RB3LYP/Aug-CC-pVTZ Fre
 q
 ----------------------------------------------------------------------

 1htz 1H-Tetrazole casno=288948 state=1 config=1 method=2 basis=20
 -----------------------------------------------------------------
 Redundant internal coordinates taken from checkpoint file:
 /tmp/rdj3/g09-29159/Gau-31222.chk
 Charge =  0 Multiplicity = 1

                         Standard orientation:
 ---------------------------------------------------------------------
 Center     Atomic      Atomic             Coordinates (Angstroms)
 Number     Number       Type             X           Y           Z
 ---------------------------------------------------------------------
      1          7           0       -0.723040   -0.923500    0.000000
      2          7           0       -1.117313    0.298548    0.000000
      3          7           0        0.000000    1.052317    0.000000
      4          1           0       -0.060655    2.056771    0.000000
      5          7           0        0.637558   -1.002749    0.000000
      6          6           0        1.065067    0.235046    0.000000
      7          1           0        2.089815    0.560639    0.000000
 ---------------------------------------------------------------------

 SCF Done:  E(RB3LYP) =  -258.350520088     A.U. after    1 cycles

 The electronic state is 1-A'.
 Alpha  occ. eigenvalues --  -14.43962 -14.40781 -14.39138 -14.36042 -10.27448
 Alpha  occ. eigenvalues --   -1.15782  -0.95950  -0.90858  -0.69217  -0.67911
 Alpha  occ. eigenvalues --   -0.61016  -0.51237  -0.51203  -0.39512  -0.34637
 Alpha  occ. eigenvalues --   -0.32495  -0.31870  -0.30661
 Alpha virt. eigenvalues --   -0.03808  -0.03030  -0.00617   0.00162   0.02795
 Alpha virt. eigenvalues --    0.03271   0.04869   0.05700   0.06499   0.07377
 Alpha virt. eigenvalues --    0.08117   0.08654   0.10055   0.11566   0.12488

 Mulliken atomic charges:
              1
     1  N   -0.168670
     2  N   -0.282021
     3  N    0.238629
     4  H    0.114672
     5  N   -0.239102
     6  C   -0.181657
     7  H    0.518150
 Sum of Mulliken atomic charges =   0.00000

 Dipole moment (field-independent basis, Debye):
    X=              2.4998    Y=              4.7251    Z=              0.0000  Tot=              5.3456
 Quadrupole moment (field-independent basis, Debye-Ang):
   XX=            -29.3705   YY=            -26.8933   ZZ=            -28.7445
   XY=              1.8917   XZ=              0.0000   YZ=              0.0000

  Exact polarizability:  45.957   0.522  45.557   0.000   0.000  26.636
 Approx polarizability:  75.009   0.445  78.948   0.000   0.000  39.566

                     1                      2                      3
                    A"                     A"                     A"
 Frequencies --   590.2820               692.6135               743.6500
 Red. masses --     1.6411                 2.0550                 8.7628
 Frc consts  --     0.3369                 0.5808                 2.8551
 IR Inten    --    81.7074                 5.7958                 7.2921

                     4                      5                      6
                    A"                     A'                     A'
 Frequencies --   873.4700               958.8193              1010.9788
 Red. masses --     1.3913                 5.8576                 6.1613
 Frc consts  --     0.6254                 3.1728                 3.7103
 IR Inten    --    16.0180                 5.7103                 0.0214

                     7                      8                      9
                    A'                     A'                     A'
 Frequencies --  1025.6575              1059.7007              1142.7596
 Red. masses --     5.2732                 3.1713                 2.0469
 Frc consts  --     3.2684                 2.0982                 1.5749
 IR Inten    --    15.4090                25.8437                17.2081

                    10                     11                     12
                    A'                     A'                     A'
 Frequencies --  1262.9856              1289.4968              1449.9990
 Red. masses --     2.2096                11.0418                 3.0410
 Frc consts  --     2.0767                10.8176                 3.7670
 IR Inten    --     3.2398                12.2638                 9.2854

                    13                     14                     15
                    A'                     A'                     A'
 Frequencies --  1505.2701              3276.4889              3643.3877
 Red. masses --     3.1750                 1.1007                 1.0836
 Frc consts  --     4.2385                 6.9620                 8.4751
 IR Inten    --    17.0853                 1.6588                91.2517

 - Thermochemistry -
 -------------------
 Temperature   298.150 Kelvin.  Pressure   1.00000 Atm.
 Atom     1 has atomic number  7 and mass  14.00307

 Molecular mass:    70.02795 amu.
 Principal axes and moments of inertia in atomic units:
                           1         2         3
     Eigenvalues --   170.68629 173.48394 344.17023
           X            0.91531   0.40276   0.00000
           Y           -0.40276   0.91531   0.00000
           Z            0.00000   0.00000   1.00000
 This molecule is an asymmetric top.
 Rotational symmetry number  1.
 Rotational temperatures (Kelvin)      0.50744     0.49926     0.25166
 Rotational constants (GHZ):          10.57344    10.40293     5.24375
 Zero-point vibrational energy     122770.1 (Joules/Mol)
                                   29.34276 (Kcal/Mol)
 Warning -- explicit consideration of   1 degrees of freedom as
           vibrations may cause significant error
 Vibrational temperatures:    849.28   996.52  1069.95  1256.73  1379.53
          (Kelvin)           1454.57  1475.69  1524.67  1644.17  1817.15
                             1855.30  2086.22  2165.75  4714.13  5242.02

 Zero-point correction=                           0.046761 (Hartree/Particle)
 Thermal correction to Energy=                    0.050228
 Thermal correction to Enthalpy=                  0.051172
 Thermal correction to Gibbs Free Energy=         0.020676
 Sum of electronic and zero-point Energies=           -258.303759
 Sum of electronic and thermal Energies=              -258.300292
 Sum of electronic and thermal Enthalpies=            -258.299348
 Sum of electronic and thermal Free Energies=         -258.329844

                     E (Thermal)             CV                S
                      KCal/Mol        Cal/Mol-Kelvin    Cal/Mol-Kelvin
 Total                   31.518             11.328             64.184
 Electronic               0.000              0.000              0.000
 Translational            0.889              2.981             38.656
 Rotational               0.889              2.981             23.837
 Vibrational             29.741              5.366              1.692
 Vibration     1          0.948              1.052              0.467

 Optimization completed.
    -- Stationary point found.
 Normal termination of Gaussian 09 at Thu Mar  8 16:11:01 2012.
