 Gaussian 03, Revision C.02,
 Gaussian 03:  AM64L-G03RevC.02 12-Jun-2004

 ------------------------------------------------
 #PBEPBE/6-31G* opt freq integral(grid=ultrafine)
 ------------------------------------------------

 -----------------------------------
 1htz casno=288948 method=69 basis=1
 -----------------------------------
 Symbolic Z-matrix:
 Charge =  0 Multiplicity = 1

 SCF Done:  E(RPBE-PBE) =  -257.971545824     A.U. after   15 cycles
 SCF Done:  E(RPBE-PBE) =  -257.979363413     A.U. after   14 cycles
 SCF Done:  E(RPBE-PBE) =  -257.979550299     A.U. after   11 cycles
 SCF Done:  E(RPBE-PBE) =  -257.979564805     A.U. after   10 cycles
 SCF Done:  E(RPBE-PBE) =  -257.979571110     A.U. after    9 cycles
 SCF Done:  E(RPBE-PBE) =  -257.979572413     A.U. after    9 cycles
 Optimization completed.
    -- Stationary point found.
 Normal termination of Gaussian 03 at Fri Feb 17 07:18:47 2006.

 -------------------------------------------------------------------
 #P Geom=AllCheck Guess=Read SCRF=Check GenChk RPBEPBE/6-31G(d) Freq
 -------------------------------------------------------------------

 1htz casno=288948 method=69 basis=1
 -----------------------------------
 Redundant internal coordinates taken from checkpoint file:
 /scratch/Gau-2651.chk
 Charge =  0 Multiplicity = 1

                         Standard orientation:
 ---------------------------------------------------------------------
 Center     Atomic     Atomic              Coordinates (Angstroms)
 Number     Number      Type              X           Y           Z
 ---------------------------------------------------------------------
    1          7             0       -0.726265   -0.934362    0.000000
    2          7             0       -1.132434    0.306021    0.000000
    3          7             0        0.000000    1.061108    0.000000
    4          1             0       -0.062490    2.078181    0.000000
    5          7             0        0.644802   -1.015808    0.000000
    6          6             0        1.074879    0.238580    0.000000
    7          1             0        2.110503    0.571627    0.000000
 ---------------------------------------------------------------------

 SCF Done:  E(RPBE-PBE) =  -257.979572413     A.U. after    1 cycles

 The electronic state is 1-A'.
 Alpha  occ. eigenvalues --  -14.11842 -14.07746 -14.06031 -14.03473  -9.98966
 Alpha  occ. eigenvalues --   -1.04710  -0.86451  -0.81322  -0.61802  -0.60311
 Alpha  occ. eigenvalues --   -0.53893  -0.44827  -0.44231  -0.32630  -0.29421
 Alpha  occ. eigenvalues --   -0.27545  -0.25714  -0.24193
 Alpha virt. eigenvalues --   -0.05622  -0.02282   0.02631   0.07484   0.13477
 Alpha virt. eigenvalues --    0.16027   0.22900   0.28326   0.34917   0.46866
 Alpha virt. eigenvalues --    0.48303   0.54457   0.56033   0.58769   0.61759

 Mulliken atomic charges:
              1
     1  N   -0.083183
     2  N   -0.039750
     3  N   -0.399766
     4  H    0.362069
     5  N   -0.287632
     6  C    0.243439
     7  H    0.204823
 Sum of Mulliken charges=   0.00000

 Dipole moment (field-independent basis, Debye):
    X=     2.4038    Y=     4.6461    Z=     0.0000  Tot=     5.2311
 Quadrupole moment (field-independent basis, Debye-Ang):
   XX=   -28.5467   YY=   -25.8934   ZZ=   -28.1976
   XY=     1.7312   XZ=     0.0000   YZ=     0.0000

  Exact polarizability:  39.001   1.060  38.557   0.000   0.000  15.787
 Approx polarizability:  84.398   0.053  90.003   0.000   0.000  27.779

                     1                      2                      3
                    A"                     A"                     A"
 Frequencies --   553.6715               671.8503               716.3252
 Red. masses --     1.7797                 2.0109                 8.1182
 Frc consts  --     0.3214                 0.5348                 2.4543
 IR Inten    --    82.2607                 8.5073                 7.2517

                     4                      5                      6
                    A"                     A'                     A'
 Frequencies --   799.4753               931.0684               973.1211
 Red. masses --     1.3397                 4.6741                 5.1474
 Frc consts  --     0.5045                 2.3873                 2.8719
 IR Inten    --    22.7556                 4.6291                 1.6588

                     7                      8                      9
                    A'                     A'                     A'
 Frequencies --  1013.7235              1030.3217              1118.8486
 Red. masses --     6.1339                 3.7290                 1.8337
 Frc consts  --     3.7139                 2.3323                 1.3525
 IR Inten    --    13.0218                26.8993                13.5546

                    10                     11                     12
                    A'                     A'                     A'
 Frequencies --  1217.6459              1237.6110              1419.2916
 Red. masses --     2.5872                 7.2878                 3.2979
 Frc consts  --     2.2600                 6.5768                 3.9141
 IR Inten    --    10.7382                 4.6722                 7.8709

                    13                     14                     15
                    A'                     A'                     A'
 Frequencies --  1456.3744              3235.1818              3555.5600
 Red. masses --     3.3306                 1.0994                 1.0830
 Frc consts  --     4.1622                 6.7799                 8.0666
 IR Inten    --    14.7339                 0.5840                56.9731

 - Thermochemistry -
 -------------------
 Temperature   298.150 Kelvin.  Pressure   1.00000 Atm.
 Atom  1 has atomic number  7 and mass  14.00307

 Molecular mass:    70.02795 amu.
 Principal axes and moments of inertia in atomic units:
                           1         2         3
     EIGENVALUES --   174.09450 177.59372 351.68821
           X            0.85275   0.52232   0.00000
           Y           -0.52232   0.85275   0.00000
           Z            0.00000   0.00000   1.00000
 This molecule is an asymmetric top.
 Rotational symmetry number  1.
 Rotational temperatures (Kelvin)      0.49751     0.48771     0.24628
 Rotational constants (GHZ):          10.36645    10.16219     5.13165
 Zero-point vibrational energy     119208.3 (Joules/Mol)
                                   28.49147 (Kcal/Mol)
 Warning -- explicit consideration of   1 degrees of freedom as
           vibrations may cause significant error
 Vibrational temperatures:    796.61   966.64  1030.63  1150.27  1339.60
          (Kelvin)           1400.10  1458.52  1482.40  1609.77  1751.92
                             1780.64  2042.04  2095.40  4654.70  5115.65

 Zero-point correction=                           0.045404 (Hartree/Particle)
 Thermal correction to Energy=                    0.048956
 Thermal correction to Enthalpy=                  0.049900
 Thermal correction to Gibbs Free Energy=         0.019258
 Sum of electronic and zero-point Energies=           -257.934168
 Sum of electronic and thermal Energies=              -257.930617
 Sum of electronic and thermal Enthalpies=            -257.929673
 Sum of electronic and thermal Free Energies=         -257.960314

                     E (Thermal)             CV                S
                      KCal/Mol        Cal/Mol-Kelvin    Cal/Mol-Kelvin
 Total                   30.720             11.827             64.491
 Electronic               0.000              0.000              0.000
 Translational            0.889              2.981             38.656
 Rotational               0.889              2.981             23.901
 Vibrational             28.943              5.866              1.934
 Vibration  1             0.909              1.132              0.537

 Optimization completed.
    -- Stationary point found.
 Normal termination of Gaussian 03 at Fri Feb 17 07:23:16 2006.
