 Gaussian 98, Revision A.4,
 Gaussian 98:  IBM-RS6000-G98RevA.4 11-Sep-1998

 --------------------
 #CCD/6-31G* OPT FREQ
 --------------------

 ----------------------------------------
 1H tetrazole c CH-NH-N=N-N= casno=288948
 ----------------------------------------
 Symbolic Z-matrix:
 Charge =  0 Multiplicity = 1

 SCF Done:  E(RHF) =  -256.754076242     A.U. after   15 cycles
 SCF Done:  E(RHF) =  -256.749773778     A.U. after   13 cycles
 SCF Done:  E(RHF) =  -256.749232579     A.U. after   12 cycles
 SCF Done:  E(RHF) =  -256.749037834     A.U. after   11 cycles
 SCF Done:  E(RHF) =  -256.749165177     A.U. after   10 cycles
 Optimization completed.
    -- Stationary point found.
 Normal termination of Gaussian 98.

 ----------------------------------------------------
 #N Geom=AllCheck Guess=TCheck RCCD(FC)/6-31G(d) Freq
 ----------------------------------------------------

 1H tetrazole c CH-NH-N=N-N= casno=288948
 ----------------------------------------
 Redundant internal coordinates taken from checkpointfile:
 /wrk/rdj3/Gau-10812.chk
 Charge =  0 Multiplicity = 1

                         Standard orientation:
 ---------------------------------------------------------------------
 Center     Atomic     Atomic              Coordinates (Angstroms)
 Number     Number      Type              X           Y           Z
 ---------------------------------------------------------------------
    1          7             0       -0.725136   -0.926755    0.000000
    2          7             0       -1.118995    0.305570    0.000000
    3          7             0        0.000000    1.053594    0.000000
    4          1             0       -0.063029    2.062926    0.000000
    5          7             0        0.638585   -1.007799    0.000000
    6          6             0        1.067411    0.234036    0.000000
    7          1             0        2.097385    0.560586    0.000000
 ---------------------------------------------------------------------

 SCF Done:  E(RHF) =  -256.749165177     A.U. after    1 cycles
 SCF Done:  E(RHF) =  -256.749185047     A.U. after   10 cycles
 SCF Done:  E(RHF) =  -256.749143620     A.U. after   10 cycles
 SCF Done:  E(RHF) =  -256.749259144     A.U. after    9 cycles
 SCF Done:  E(RHF) =  -256.749068889     A.U. after   10 cycles
 SCF Done:  E(RHF) =  -256.749129498     A.U. after    9 cycles
 SCF Done:  E(RHF) =  -256.749197303     A.U. after    9 cycles
 SCF Done:  E(RHF) =  -256.749136999     A.U. after   10 cycles
 SCF Done:  E(RHF) =  -256.749190792     A.U. after   10 cycles
 SCF Done:  E(RHF) =  -256.749164829     A.U. after    7 cycles
 SCF Done:  E(RHF) =  -256.749146267     A.U. after    7 cycles
 SCF Done:  E(RHF) =  -256.749182770     A.U. after    7 cycles
 SCF Done:  E(RHF) =  -256.749159198     A.U. after    8 cycles
 SCF Done:  E(RHF) =  -256.749170819     A.U. after    8 cycles
 SCF Done:  E(RHF) =  -256.749165116     A.U. after    6 cycles

  The electronic state is 1-A'.
 Alpha  occ. eigenvalues --  -15.68993 -15.66914 -15.65124 -15.60875 -11.34224
 Alpha  occ. eigenvalues --   -1.49362  -1.25527  -1.19452  -0.90616  -0.88877
 Alpha  occ. eigenvalues --   -0.79884  -0.67530  -0.67427  -0.56688  -0.47728
 Alpha  occ. eigenvalues --   -0.47070  -0.45301  -0.41700
 Alpha virt. eigenvalues --    0.13950   0.18835   0.19632   0.25094   0.36766
 Alpha virt. eigenvalues --    0.38191   0.47494   0.49951   0.64778   0.73676
 Alpha virt. eigenvalues --    0.73903   0.82416   0.82712   0.89528   0.91792

                     1                      2                      3
                    A"                     A"                     A"
 Frequencies --   579.4200               699.6690               745.8279
 Red. masses --     1.8635                 1.9941                 7.2423
 Frc consts  --     0.3686                 0.5752                 2.3736
 IR Inten    --    99.9853                11.1096                10.6644
 Raman Activ --     0.0000                 0.0000                 0.0000

                     4                      5                      6
                    A"                     A'                     A'
 Frequencies --   862.5449               997.9183              1033.4818
 Red. masses --     1.3291                 5.0257                 6.8873
 Frc consts  --     0.5826                 2.9488                 4.3342
 IR Inten    --    21.7571                 1.8835                 1.6873
 Raman Activ --     0.0000                 0.0000                 0.0000

                     7                      8                      9
                    A'                     A'                     A'
 Frequencies --  1103.0267              1129.0263              1185.5046
 Red. masses --     6.1099                 2.6134                 1.7474
 Frc consts  --     4.3799                 1.9627                 1.4469
 IR Inten    --    21.7690                27.1638                11.9659
 Raman Activ --     0.0000                 0.0000                 0.0000

                    10                     11                     12
                    A'                     A'                     A'
 Frequencies --  1319.1185              1348.3351              1529.1805
 Red. masses --     2.9468                 8.0943                 2.9845
 Frc consts  --     3.0211                 8.6701                 4.1119
 IR Inten    --     0.2361                17.7278                20.6288
 Raman Activ --     0.0000                 0.0000                 0.0000

                    13                     14                     15
                    A'                     A'                     A'
 Frequencies --  1566.6613              3335.6140              3698.4985
 Red. masses --     3.9259                 1.1024                 1.0844
 Frc consts  --     5.6773                 7.2264                 8.7397
 IR Inten    --    18.2607                 0.9365               113.4322
 Raman Activ --     0.0000                 0.0000                 0.0000

 - Thermochemistry -
 -------------------
 Temperature   298.150 Kelvin.  Pressure   1.00000 Atm.
 Atom  1 has atomic number  7 and mass  14.00307

 Molecular mass:    70.02795 amu.
 Principal axes and moments of inertia in atomic units:
                           1         2         3
     EIGENVALUES --   171.43161 174.69702 346.12863
           X            0.84511   0.53459   0.00000
           Y           -0.53459   0.84511   0.00000
           Z            0.00000   0.00000   1.00000
 THIS MOLECULE IS AN ASYMMETRIC TOP.
 ROTATIONAL SYMMETRY NUMBER  1.
 ROTATIONAL TEMPERATURES (KELVIN)      0.50524     0.49579     0.25023
 ROTATIONAL CONSTANTS (GHZ)           10.52747    10.33069     5.21408
 Zero-point vibrational energy     126408.4 (Joules/Mol)
                                   30.21233 (Kcal/Mol)
 WARNING-- EXPLICIT CONSIDERATION OF   1 DEGREES OF FREEDOM AS
           VIBRATIONS MAY CAUSE SIGNIFICANT ERROR
 VIBRATIONAL TEMPERATURES:    833.65  1006.66  1073.07  1241.00  1435.77
          (KELVIN)           1486.94  1587.00  1624.41  1705.67  1897.91
                             1939.94  2200.14  2254.06  4799.18  5321.28

 Zero-point correction=                           0.048146 (Hartree/Particle)
 Thermal correction to Energy=                    0.051583
 Thermal correction to Enthalpy=                  0.052527
 Thermal correction to Gibbs Free Energy=         0.022059
 Sum of electronic and zero-point Energies=           -257.485965
 Sum of electronic and thermal Energies=              -257.482528
 Sum of electronic and thermal Enthalpies=            -257.481584
 Sum of electronic and thermal Free Energies=         -257.512052

                     E (Thermal)             CV                S
                      KCAL/MOL        CAL/MOL-KELVIN    CAL/MOL-KELVIN
 TOTAL                   32.369             11.026             64.125
 ELECTRONIC               0.000              0.000              0.000
 TRANSLATIONAL            0.889              2.981             38.656
 ROTATIONAL               0.889              2.981             23.854
 VIBRATIONAL             30.591              5.064              1.615
 VIBRATION  1             0.936              1.076              0.486
                       Q            LOG10(Q)             LN(Q)
 TOTAL BOT       0.713679D-10        -10.146497        -23.363173
 TOTAL V=0       0.998074D+12         11.999163         27.629094
 VIB (BOT)       0.850118D-22        -22.070521        -50.819253
 VIB (BOT)  1    0.263145D+00         -0.579804         -1.335048
 VIB (V=0)       0.118888D+01          0.075139          0.173014
 VIB (V=0)  1    0.106502D+01          0.027357          0.062992
 ELECTRONIC      0.100000D+01          0.000000          0.000000
 TRANSLATIONAL   0.230339D+08          7.362368         16.952478
 ROTATIONAL      0.364465D+05          4.561656         10.503602
 ***** Axes restored to original set *****
 -------------------------------------------------------------------
 Center     Atomic                   Forces (Hartrees/Bohr)
 Number     Number              X              Y              Z
 -------------------------------------------------------------------
    1          7          -0.000018760   -0.000391665    0.000000000
    2          7           0.000111464   -0.000121028    0.000000000
    3          7          -0.000333781    0.000239399    0.000000000
    4          1           0.000014507   -0.000029217    0.000000000
    5          7          -0.000022998    0.000685058    0.000000000
    6          6           0.000245633   -0.000344320    0.000000000
    7          1           0.000003935   -0.000038227    0.000000000
 -------------------------------------------------------------------
 Cartesian Forces:  Max     0.000685058 RMS     0.000218307

 GradGradGradGradGradGradGradGradGradGradGradGradGradGradGradGradGradGrad
 Berny optimization.
 Internal  Forces:  Max     0.000418273 RMS     0.000121437
 Search for a local minimum.
 Step number   1 out of a maximum of  36
 All quantities printed in internal units (Hartrees-Bohrs-Radians)
 Second derivative matrix not updated -- analytic derivatives used.
     Eigenvalues ---    0.00816   0.02608   0.07225   0.07980   0.10905
     Eigenvalues ---    0.11256   0.21722   0.29026   0.37314   0.38890
     Eigenvalues ---    0.46221   0.48451   0.50035   0.60574   0.65943
     Eigenvalues --- 1000.000001000.000001000.000001000.000001000.00000
     Eigenvalues --- 1000.000001000.000001000.000001000.000001000.00000
     Eigenvalues --- 1000.00000
 Angle between quadratic step and forces=  15.73 degrees.
 Linear search not attempted -- first point.
 Iteration  1 RMS(Cart)=  0.00034657 RMS(Int)=  0.00000012
 Iteration  2 RMS(Cart)=  0.00000010 RMS(Int)=  0.00000006
 Variable       Old X    -DE/DX   Delta X   Delta X   Delta X     New X
                                 (Linear)    (Quad)   (Total)
    R1        2.44480  -0.00003   0.00000   0.00038   0.00038   2.44519
    R2        2.58161  -0.00042   0.00000  -0.00171  -0.00171   2.57990
    R3        2.54355  -0.00015   0.00000  -0.00068  -0.00068   2.54287
    R4        1.91107   0.00001   0.00000   0.00004   0.00004   1.91111
    R5        2.54310   0.00003   0.00000   0.00015   0.00015   2.54325
    R6        2.48270   0.00009   0.00000   0.00044   0.00044   2.48314
    R7        2.04185   0.00004   0.00000   0.00003   0.00003   2.04188
    A1        1.93950  -0.00004   0.00000  -0.00008  -0.00008   1.93942
    A2        1.85071   0.00001   0.00000  -0.00020  -0.00020   1.85051
    A3        2.09769  -0.00001   0.00000   0.00002   0.00002   2.09771
    A4        1.89754   0.00008   0.00000   0.00052   0.00052   1.89806
    A5        2.28796  -0.00007   0.00000  -0.00054  -0.00054   2.28742
    A6        1.84393   0.00022   0.00000   0.00083   0.00083   1.84477
    A7        1.89310  -0.00027   0.00000  -0.00107  -0.00107   1.89203
    A8        2.17977   0.00015   0.00000   0.00070   0.00070   2.18048
    A9        2.21031   0.00012   0.00000   0.00037   0.00037   2.21068
    D1        0.00000   0.00000   0.00000   0.00000   0.00000   0.00000
    D2        0.00000   0.00000   0.00000   0.00000   0.00000   0.00000
    D3        3.14159   0.00000   0.00000   0.00000   0.00000   3.14159
    D4        0.00000   0.00000   0.00000   0.00000   0.00000   0.00000
    D5        0.00000   0.00000   0.00000   0.00000   0.00000   0.00000
    D6        3.14159   0.00000   0.00000   0.00000   0.00000   3.14159
    D7        3.14159   0.00000   0.00000   0.00000   0.00000   3.14159
    D8        0.00000   0.00000   0.00000   0.00000   0.00000   0.00000
    D9        0.00000   0.00000   0.00000   0.00000   0.00000   0.00000
   D10        3.14159   0.00000   0.00000   0.00000   0.00000   3.14159
         Item               Value     Threshold  Converged?
 Maximum Force            0.000418     0.000450     YES
 RMS     Force            0.000121     0.000300     YES
 Maximum Displacement     0.001246     0.001800     YES
 RMS     Displacement     0.000347     0.001200     YES
 Predicted change in Energy=-7.771733D-07
 Optimization completed.
    -- Stationary point found.
                         ----------------------------
                         !   Optimized Parameters   !
                         ! (Angstroms and Degrees)  !
 ------------------------                            -------------------------
 ! Name  Definition              Value          Derivative Info.             !
 -----------------------------------------------------------------------------
 ! R1    R(1,2)                  1.2937         -DE/DX =    0.               !
 ! R2    R(1,5)                  1.3661         -DE/DX =   -0.0004           !
 ! R3    R(2,3)                  1.346          -DE/DX =   -0.0002           !
 ! R4    R(3,4)                  1.0113         -DE/DX =    0.               !
 ! R5    R(3,6)                  1.3457         -DE/DX =    0.               !
 ! R6    R(5,6)                  1.3138         -DE/DX =    0.0001           !
 ! R7    R(6,7)                  1.0805         -DE/DX =    0.               !
 ! A1    A(2,1,5)              111.1252         -DE/DX =    0.               !
 ! A2    A(1,2,3)              106.0377         -DE/DX =    0.               !
 ! A3    A(2,3,4)              120.1886         -DE/DX =    0.               !
 ! A4    A(2,3,6)              108.7211         -DE/DX =    0.0001           !
 ! A5    A(4,3,6)              131.0903         -DE/DX =   -0.0001           !
 ! A6    A(1,5,6)              105.6496         -DE/DX =    0.0002           !
 ! A7    A(3,6,5)              108.4664         -DE/DX =   -0.0003           !
 ! A8    A(3,6,7)              124.8919         -DE/DX =    0.0002           !
 ! A9    A(5,6,7)              126.6417         -DE/DX =    0.0001           !
 ! D1    D(5,1,2,3)              0.             -DE/DX =    0.               !
 ! D2    D(2,1,5,6)              0.             -DE/DX =    0.               !
 ! D3    D(1,2,3,4)            180.             -DE/DX =    0.               !
 ! D4    D(1,2,3,6)              0.             -DE/DX =    0.               !
 ! D5    D(2,3,6,5)              0.             -DE/DX =    0.               !
 ! D6    D(2,3,6,7)            180.             -DE/DX =    0.               !
 ! D7    D(4,3,6,5)            180.             -DE/DX =    0.               !
 ! D8    D(4,3,6,7)              0.             -DE/DX =    0.               !
 ! D9    D(1,5,6,3)              0.             -DE/DX =    0.               !
 ! D10   D(1,5,6,7)            180.             -DE/DX =    0.               !
 -----------------------------------------------------------------------------
 GradGradGradGradGradGradGradGradGradGradGradGradGradGradGradGradGradGrad

 1\1\GINC-PLUMBUM\Freq\RCCD-FC\6-31G(d)\C1H2N4\RDJ3\04-Feb-1999\0\\#N G
 EOM=ALLCHECK GUESS=TCHECK RCCD(FC)/6-31G(D) FREQ\\1H tetrazole c CH-NH
 -N=N-N= casno=288948\\0,1\N,-1.0601640692,0.5106364575,0.\N,0.05970895
 19,1.1584286917,0.\N,1.0293189697,0.2248624589,0.\H,2.0019430418,0.501
 8549136,0.\N,-0.8482891916,-0.8389603015,0.\C,0.4564552387,-0.99286801
 48,0.\H,0.9953029005,-1.9294179709,0.\\Version=IBM-RS6000-G98RevA.4\St
 ate=1-A'\HF=-256.7491652\MP2=-257.5349764\MP3=-257.5321818\MP4D=-257.5
 543832\MP4DQ=-257.5333058\CCD=-257.5341109\RMSD=1.373e-09\RMSF=2.183e-
 04\Dipole=2.0963604,-0.5686381,0.\DipoleDeriv=-0.1399828,0.050433,0.,-
 0.0846316,0.1945644,0.,0.,0.,-0.1570262,0.2543365,-0.2681079,0.,-0.215
 9282,-0.2541785,0.,0.,0.,-0.0891343,-0.5825915,0.0048714,0.,0.0102089,
 -0.1636279,0.,0.,0.,-0.19341,0.3025388,0.0380806,0.,0.0248442,0.225956
 5,0.,0.,0.,0.3711497,-0.3142855,0.0887639,0.,0.0211909,-0.4204513,0.,0
 .,0.,-0.2157171,0.3903106,0.054024,0.,0.2119617,0.3342977,0.,0.,0.,0.1
 141583,0.0898651,0.0320583,0.,0.0320921,0.0833044,0.,0.,0.,0.1698759\P
 G=CS [SG(C1H2N4)]\NImag=0\\0.64378077,-0.00774157,0.44512609,0.,0.,0.1
 2597911,-0.31819752,-0.14717763,0.,0.52652990,-0.07653523,-0.18226597,
 0.,0.06413136,0.60562068,0.,0.,-0.09838609,0.,0.,0.11669617,-0.1590879
 2,-0.03426660,0.,-0.16504277,0.05533290,0.,0.99967998,0.04062781,-0.01
 476863,0.,0.10560116,-0.22704275,0.,0.16390968,0.69488575,0.,0.,0.0267
 3820,0.,0.,-0.06832640,0.,0.,0.08997941,-0.00243536,0.00434056,0.,-0.0
 1472359,-0.01267660,0.,-0.43940227,-0.10702885,0.,0.45342423,0.0112597
 6,-0.00600611,0.,0.02476511,0.01985731,0.,-0.11646342,-0.10916489,0.,0
 .11167534,0.09389411,0.,0.,0.00840002,0.,0.,-0.01291192,0.,0.,-0.00628
 913,0.,0.,0.01409545,-0.11894510,0.05159844,0.,-0.00468240,-0.00470694
 ,0.,-0.09500116,-0.09892390,0.,0.00242806,-0.00641797,0.,0.65218569,0.
 00616557,-0.20027244,0.,-0.10645864,-0.10718859,0.,0.01201865,0.001935
 49,0.,0.00129165,-0.00808132,0.,0.03938066,0.43099969,0.,0.,-0.0909790
 0,0.,0.,0.03630967,0.,0.,0.02010857,0.,0.,0.00784729,0.,0.,0.11058687,
 -0.03896024,0.13012492,0.,-0.01982256,-0.02028081,0.,-0.15684802,-0.08
 441050,0.,0.00092127,-0.02517049,0.,-0.43032916,0.01909564,0.,0.781597
 45,0.02899310,-0.04311869,0.,0.06103360,-0.10682974,0.,-0.09687302,-0.
 33115499,0.,0.00266594,0.01016462,0.,0.02009579,-0.12419305,0.,-0.1531
 5574,0.89297473,0.,0.,0.01890662,0.,0.,0.02003394,0.,0.,-0.05856258,0.
 ,0.,-0.01054705,0.,0.,-0.07843745,0.,0.,0.13830295,-0.00615976,0.00314
 126,0.,-0.00407828,-0.00527468,0.,0.01572886,-0.01977244,0.,-0.0002132
 5,0.00035222,0.,-0.00564022,0.02850138,0.,-0.13657573,0.13722965,0.,0.
 13693624,-0.00275551,0.00133530,0.,-0.00191099,-0.00215982,0.,0.016352
 13,-0.01468106,0.,-0.00027171,-0.00066334,0.,-0.00100846,0.00676385,0.
 ,0.13377275,-0.29783499,0.,-0.14417532,0.30723861,0.,0.,0.00931536,0.,
 0.,0.00657423,0.,0.,-0.00363686,0.,0.,-0.00059211,0.,0.,-0.00542548,0.
 ,0.,-0.02969101,0.,0.,0.02346239\\0.00001876,0.00039166,0.,-0.00011146
 ,0.00012103,0.,0.00033378,-0.00023940,0.,-0.00001451,0.00002922,0.,0.0
 0002300,-0.00068506,0.,-0.00024563,0.00034432,0.,-0.00000393,0.0000382
 3,0.\\\@

 I take a simple view of life: keep your eyes open and get on with it.
 -- Laurence Olivier
 Job cpu time:  0 days  8 hours 37 minutes 13.4 seconds.
 File lengths (MBytes):  RWF=  396 Int=    0 D2E=    0 Chk=    4 Scr=    1
 Normal termination of Gaussian 98.
