 Gaussian 09, Revision B.01,
 Gaussian 09:  EM64L-G09RevB.01 12-Aug-2010

 ------------------------------
 #MP3=FULL/6-31+G(d,p) opt freq
 ------------------------------

 -----------------------------------------------------------------
 1htz 1H-Tetrazole casno=288948 state=1 config=1 method=71 basis=4
 -----------------------------------------------------------------
 Symbolic Z-matrix:
 Charge =  0 Multiplicity = 1

 SCF Done:  E(RHF) =  -256.767607493     A.U. after   15 cycles
 E2 =    -0.8138910436D+00 EUMP2 =    -0.25758149853709D+03
 SCF Done:  E(RHF) =  -256.763997959     A.U. after   13 cycles
 E2 =    -0.8237942517D+00 EUMP2 =    -0.25758779221080D+03
 SCF Done:  E(RHF) =  -256.763494830     A.U. after   12 cycles
 E2 =    -0.8245953139D+00 EUMP2 =    -0.25758809014429D+03
 SCF Done:  E(RHF) =  -256.763389419     A.U. after   11 cycles
 E2 =    -0.8248065425D+00 EUMP2 =    -0.25758819596201D+03
 SCF Done:  E(RHF) =  -256.763487314     A.U. after   10 cycles
 E2 =    -0.8246883074D+00 EUMP2 =    -0.25758817562121D+03
 Optimization completed.
    -- Stationary point found.
 Normal termination of Gaussian 09 at Fri Feb  1 05:13:46 2013.

 ----------------------------------------------------------------------
 #N Geom=AllCheck Guess=TCheck SCRF=Check GenChk RMP3-Full/6-31+G(d,p)
 Freq
 ----------------------------------------------------------------------

 1htz 1H-Tetrazole casno=288948 state=1 config=1 method=71 basis=4
 -----------------------------------------------------------------
 Redundant internal coordinates taken from checkpoint file:
 /tmp/rdj3/g09-4531/Gau-16500.chk
 Charge =  0 Multiplicity = 1

                         Standard orientation:
 ---------------------------------------------------------------------
 Center     Atomic      Atomic             Coordinates (Angstroms)
 Number     Number       Type             X           Y           Z
 ---------------------------------------------------------------------
      1          7           0       -0.724684   -0.925978    0.000000
      2          7           0       -1.117253    0.304425    0.000000
      3          7           0        0.000000    1.053486    0.000000
      4          1           0       -0.059167    2.054885    0.000000
      5          7           0        0.637205   -1.006277    0.000000
      6          6           0        1.067156    0.234571    0.000000
      7          1           0        2.089355    0.558091    0.000000
 ---------------------------------------------------------------------

 SCF Done:  E(RHF) =  -256.763487314     A.U. after    1 cycles
 E2 =    -0.8246883073D+00 EUMP2 =    -0.25758817562114D+03
 SCF Done:  E(RHF) =  -256.763506401     A.U. after   10 cycles
 E2 =    -0.8246757529D+00 EUMP2 =    -0.25758818215362D+03
 SCF Done:  E(RHF) =  -256.763466534     A.U. after   11 cycles
 E2 =    -0.8247009844D+00 EUMP2 =    -0.25758816751893D+03
 SCF Done:  E(RHF) =  -256.763576716     A.U. after   10 cycles
 E2 =    -0.8245542308D+00 EUMP2 =    -0.25758813094727D+03
 SCF Done:  E(RHF) =  -256.763395573     A.U. after   11 cycles
 E2 =    -0.8248225631D+00 EUMP2 =    -0.25758821813566D+03
 E2 =    -0.8246884070D+00 EUMP2 =    -0.25758817542619D+03
 E2 =    -0.8245962847D+00 EUMP2 =    -0.25758815012903D+03
 E2 =    -0.8247805367D+00 EUMP2 =    -0.25758819915807D+03
 E2 =    -0.8247999087D+00 EUMP2 =    -0.25758821491839D+03
 E2 =    -0.8245767696D+00 EUMP2 =    -0.25758813441567D+03
 E2 =    -0.8246884057D+00 EUMP2 =    -0.25758817544495D+03
 E2 =    -0.8246994057D+00 EUMP2 =    -0.25758817761246D+03
 E2 =    -0.8246773001D+00 EUMP2 =    -0.25758817141494D+03
 E2 =    -0.8247149983D+00 EUMP2 =    -0.25758817229444D+03
 E2 =    -0.8246618279D+00 EUMP2 =    -0.25758817514554D+03
 E2 =    -0.8246855525D+00 EUMP2 =    -0.25758817432537D+03
 E2 =    -0.8246911208D+00 EUMP2 =    -0.25758817670368D+03
 E2 =    -0.8247160167D+00 EUMP2 =    -0.25758818477724D+03
 E2 =    -0.8246606319D+00 EUMP2 =    -0.25758816466738D+03
 E2 =    -0.8246883213D+00 EUMP2 =    -0.25758817560002D+03
 E2 =    -0.8247201439D+00 EUMP2 =    -0.25758817425530D+03
 E2 =    -0.8246565629D+00 EUMP2 =    -0.25758817551823D+03
 E2 =    -0.8246073454D+00 EUMP2 =    -0.25758815055029D+03
 E2 =    -0.8247693999D+00 EUMP2 =    -0.25758819839728D+03
 E2 =    -0.8246883842D+00 EUMP2 =    -0.25758817544497D+03
 SCF Done:  E(RHF) =  -256.763442539     A.U. after    9 cycles
 E2 =    -0.8247444483D+00 EUMP2 =    -0.25758818698741D+03
 SCF Done:  E(RHF) =  -256.763528483     A.U. after   10 cycles
 E2 =    -0.8246323991D+00 EUMP2 =    -0.25758816088249D+03
 SCF Done:  E(RHF) =  -256.763457639     A.U. after   10 cycles
 E2 =    -0.8247341845D+00 EUMP2 =    -0.25758819182390D+03
 SCF Done:  E(RHF) =  -256.763514427     A.U. after   11 cycles
 E2 =    -0.8246424508D+00 EUMP2 =    -0.25758815687784D+03
 SCF Done:  E(RHF) =  -256.763486973     A.U. after    8 cycles
 E2 =    -0.8246884394D+00 EUMP2 =    -0.25758817541285D+03
 SCF Done:  E(RHF) =  -256.763480841     A.U. after    7 cycles
 E2 =    -0.8246969672D+00 EUMP2 =    -0.25758817780815D+03
 SCF Done:  E(RHF) =  -256.763492424     A.U. after    8 cycles
 E2 =    -0.8246796836D+00 EUMP2 =    -0.25758817210768D+03
 SCF Done:  E(RHF) =  -256.763484831     A.U. after    8 cycles
 E2 =    -0.8246918049D+00 EUMP2 =    -0.25758817663580D+03
 SCF Done:  E(RHF) =  -256.763489462     A.U. after    9 cycles
 E2 =    -0.8246848366D+00 EUMP2 =    -0.25758817429889D+03
 SCF Done:  E(RHF) =  -256.763487258     A.U. after    6 cycles
 E2 =    -0.8246883250D+00 EUMP2 =    -0.25758817558302D+03

 Alpha  occ. eigenvalues --  -15.69652 -15.67760 -15.66013 -15.61794 -11.34770
 Alpha  occ. eigenvalues --   -1.50334  -1.26425  -1.20307  -0.91528  -0.89652
 Alpha  occ. eigenvalues --   -0.80682  -0.68369  -0.68127  -0.57351  -0.48364
 Alpha  occ. eigenvalues --   -0.47707  -0.46000  -0.42368
 Alpha virt. eigenvalues --    0.05146   0.08221   0.08744   0.10067   0.12984
 Alpha virt. eigenvalues --    0.14751   0.16253   0.17542   0.18928   0.20637
 Alpha virt. eigenvalues --    0.22235   0.23567   0.24629   0.27358   0.28952

 Mulliken atomic charges:
              1
     1  N   -0.017390
     2  N   -0.000905
     3  N   -0.333363
     4  H    0.355820
     5  N   -0.276547
     6  C    0.077714
     7  H    0.194671
 Sum of Mulliken atomic charges =   0.00000

 Dipole moment (field-independent basis, Debye):
    X=              2.6299    Y=              4.9991    Z=              0.0009  Tot=              5.6487
 Quadrupole moment (field-independent basis, Debye-Ang):
   XX=            -29.8220   YY=            -27.3127   ZZ=            -29.2064
   XY=              1.9892   XZ=              0.0022   YZ=              0.0007

                     1                      2                      3
                    A"                     A"                     A"
 Frequencies --   560.2987               693.7475               730.9247
 Red. masses --     2.0582                 1.9971                 6.2281
 Frc consts  --     0.3807                 0.5663                 1.9604
 IR Inten    --    81.7075                14.3563                12.3520

                     4                      5                      6
                    A"                     A'                     A'
 Frequencies --   863.1891              1001.2518              1034.0679
 Red. masses --     1.2781                 5.2685                 7.4049
 Frc consts  --     0.5611                 3.1119                 4.6652
 IR Inten    --    27.0644                 1.5044                 0.5721

                     7                      8                      9
                    A'                     A'                     A'
 Frequencies --  1106.1274              1130.6664              1186.3079
 Red. masses --     6.0242                 2.7544                 1.7604
 Frc consts  --     4.3427                 2.0747                 1.4596
 IR Inten    --    24.3488                24.6387                12.2224

                    10                     11                     12
                    A'                     A'                     A'
 Frequencies --  1324.3366              1359.2954              1540.1873
 Red. masses --     2.9698                 7.5049                 2.9702
 Frc consts  --     3.0688                 8.1700                 4.1513
 IR Inten    --     0.5273                18.3674                18.5069

                    13                     14                     15
                    A'                     A'                     A'
 Frequencies --  1577.6342              3398.9383              3794.4652
 Red. masses --     3.4931                 1.1015                 1.0840
 Frc consts  --     5.1224                 7.4976                 9.1960
 IR Inten    --    20.4391                 1.9842               127.7212

 - Thermochemistry -
 -------------------
 Temperature   298.150 Kelvin.  Pressure   1.00000 Atm.
 Atom     1 has atomic number  7 and mass  14.00307

 Molecular mass:    70.02795 amu.
 Principal axes and moments of inertia in atomic units:
                           1         2         3
     Eigenvalues --   171.18390 174.09670 345.28060
           X            0.85296   0.52197   0.00000
           Y           -0.52197   0.85296   0.00000
           Z            0.00000   0.00000   1.00000
 This molecule is an asymmetric top.
 Rotational symmetry number  1.
 Rotational temperatures (Kelvin)      0.50597     0.49750     0.25085
 Rotational constants (GHZ):          10.54270    10.36632     5.22688
 Zero-point vibrational energy     127410.9 (Joules/Mol)
                                   30.45193 (Kcal/Mol)
 Warning -- explicit consideration of   1 degrees of freedom as
           vibrations may cause significant error
 Vibrational temperatures:    806.14   998.15  1051.64  1241.94  1440.58
          (Kelvin)           1487.79  1591.47  1626.77  1706.83  1905.42
                             1955.72  2215.98  2269.86  4890.31  5459.38

 Zero-point correction=                           0.048528 (Hartree/Particle)
 Thermal correction to Energy=                    0.051982
 Thermal correction to Enthalpy=                  0.052926
 Thermal correction to Gibbs Free Energy=         0.022436
 Sum of electronic and zero-point Energies=           -257.534985
 Sum of electronic and thermal Energies=              -257.531531
 Sum of electronic and thermal Enthalpies=            -257.530587
 Sum of electronic and thermal Free Energies=         -257.561076

                     E (Thermal)             CV                S
                      KCal/Mol        Cal/Mol-Kelvin    Cal/Mol-Kelvin
 Total                   32.619             11.084             64.171
 Electronic               0.000              0.000              0.000
 Translational            0.889              2.981             38.656
 Rotational               0.889              2.981             23.846
 Vibrational             30.842              5.123              1.668
 Vibration     1          0.916              1.117              0.523

 Optimization completed.
    -- Stationary point found.
 Normal termination of Gaussian 09 at Fri Feb  1 05:57:24 2013.
