 Gaussian 09, Revision B.01,
 Gaussian 09:  EM64L-G09RevB.01 12-Aug-2010

 ---------------------------
 #MP3=FULL/6-31G(d) opt freq
 ---------------------------

 -----------------------------------------------------------------
 1htz 1H-Tetrazole casno=288948 state=1 config=1 method=71 basis=1
 -----------------------------------------------------------------
 Symbolic Z-matrix:
 Charge =  0 Multiplicity = 1

 SCF Done:  E(RHF) =  -256.754076290     A.U. after   14 cycles
 E2 =    -0.7928540498D+00 EUMP2 =    -0.25754693034018D+03
 SCF Done:  E(RHF) =  -256.750329524     A.U. after   13 cycles
 E2 =    -0.8028846836D+00 EUMP2 =    -0.25755321420781D+03
 SCF Done:  E(RHF) =  -256.749917180     A.U. after   12 cycles
 E2 =    -0.8035719939D+00 EUMP2 =    -0.25755348917398D+03
 SCF Done:  E(RHF) =  -256.749751658     A.U. after   11 cycles
 E2 =    -0.8038522009D+00 EUMP2 =    -0.25755360385910D+03
 SCF Done:  E(RHF) =  -256.749859126     A.U. after   10 cycles
 E2 =    -0.8037161747D+00 EUMP2 =    -0.25755357530061D+03
 Optimization completed.
    -- Stationary point found.
 Normal termination of Gaussian 09 at Fri Sep  7 15:03:28 2012.

 ----------------------------------------------------------------------
 #N Geom=AllCheck Guess=TCheck SCRF=Check GenChk RMP3-Full/6-31G(d) Fre
 q
 ----------------------------------------------------------------------

 1htz 1H-Tetrazole casno=288948 state=1 config=1 method=71 basis=1
 -----------------------------------------------------------------
 Redundant internal coordinates taken from checkpoint file:
 /tmp/rdj3/g09-1239/Gau-13088.chk
 Charge =  0 Multiplicity = 1

                         Standard orientation:
 ---------------------------------------------------------------------
 Center     Atomic      Atomic             Coordinates (Angstroms)
 Number     Number       Type             X           Y           Z
 ---------------------------------------------------------------------
      1          7           0       -0.724131   -0.925515    0.000000
      2          7           0       -1.117422    0.304626    0.000000
      3          7           0        0.000000    1.052138    0.000000
      4          1           0       -0.063204    2.059098    0.000000
      5          7           0        0.637532   -1.005947    0.000000
      6          6           0        1.066217    0.234017    0.000000
      7          1           0        2.094045    0.559696    0.000000
 ---------------------------------------------------------------------

 SCF Done:  E(RHF) =  -256.749859126     A.U. after    1 cycles
 E2 =    -0.8037161730D+00 EUMP2 =    -0.25755357529887D+03
 SCF Done:  E(RHF) =  -256.749877298     A.U. after   10 cycles
 E2 =    -0.8037046529D+00 EUMP2 =    -0.25755358195052D+03
 SCF Done:  E(RHF) =  -256.749839245     A.U. after   11 cycles
 E2 =    -0.8037278005D+00 EUMP2 =    -0.25755356704531D+03
 SCF Done:  E(RHF) =  -256.749948407     A.U. after   10 cycles
 E2 =    -0.8035835643D+00 EUMP2 =    -0.25755353197154D+03
 SCF Done:  E(RHF) =  -256.749767491     A.U. after   10 cycles
 E2 =    -0.8038489553D+00 EUMP2 =    -0.25755361644612D+03
 E2 =    -0.8037162600D+00 EUMP2 =    -0.25755357508790D+03
 E2 =    -0.8036252522D+00 EUMP2 =    -0.25755355009963D+03
 E2 =    -0.8038072783D+00 EUMP2 =    -0.25755359850508D+03
 E2 =    -0.8038270603D+00 EUMP2 =    -0.25755361337700D+03
 E2 =    -0.8036053405D+00 EUMP2 =    -0.25755353528864D+03
 E2 =    -0.8037162582D+00 EUMP2 =    -0.25755357510554D+03
 E2 =    -0.8037282564D+00 EUMP2 =    -0.25755357716611D+03
 E2 =    -0.8037041788D+00 EUMP2 =    -0.25755357118433D+03
 E2 =    -0.8037343693D+00 EUMP2 =    -0.25755357393411D+03
 E2 =    -0.8036981781D+00 EUMP2 =    -0.25755357289854D+03
 E2 =    -0.8037123973D+00 EUMP2 =    -0.25755357417034D+03
 E2 =    -0.8037200094D+00 EUMP2 =    -0.25755357620697D+03
 E2 =    -0.8037512311D+00 EUMP2 =    -0.25755358263232D+03
 E2 =    -0.8036811404D+00 EUMP2 =    -0.25755356621834D+03
 E2 =    -0.8037161856D+00 EUMP2 =    -0.25755357527249D+03
 E2 =    -0.8037472536D+00 EUMP2 =    -0.25755357397057D+03
 E2 =    -0.8036851674D+00 EUMP2 =    -0.25755357513018D+03
 E2 =    -0.8036361957D+00 EUMP2 =    -0.25755355088097D+03
 E2 =    -0.8037962805D+00 EUMP2 =    -0.25755359740379D+03
 E2 =    -0.8037162386D+00 EUMP2 =    -0.25755357510893D+03
 SCF Done:  E(RHF) =  -256.749824457     A.U. after    9 cycles
 E2 =    -0.8037631977D+00 EUMP2 =    -0.25755358765464D+03
 SCF Done:  E(RHF) =  -256.749890206     A.U. after   10 cycles
 E2 =    -0.8036693678D+00 EUMP2 =    -0.25755355957418D+03
 SCF Done:  E(RHF) =  -256.749831628     A.U. after   10 cycles
 E2 =    -0.8037593057D+00 EUMP2 =    -0.25755359093378D+03
 SCF Done:  E(RHF) =  -256.749884033     A.U. after   11 cycles
 E2 =    -0.8036730627D+00 EUMP2 =    -0.25755355709526D+03
 SCF Done:  E(RHF) =  -256.749858780     A.U. after    7 cycles
 E2 =    -0.8037162908D+00 EUMP2 =    -0.25755357507096D+03
 SCF Done:  E(RHF) =  -256.749843380     A.U. after    7 cycles
 E2 =    -0.8037325595D+00 EUMP2 =    -0.25755357593924D+03
 SCF Done:  E(RHF) =  -256.749873538     A.U. after    8 cycles
 E2 =    -0.8036998159D+00 EUMP2 =    -0.25755357335393D+03
 SCF Done:  E(RHF) =  -256.749854151     A.U. after    8 cycles
 E2 =    -0.8037218135D+00 EUMP2 =    -0.25755357596499D+03
 SCF Done:  E(RHF) =  -256.749863762     A.U. after    9 cycles
 E2 =    -0.8037105581D+00 EUMP2 =    -0.25755357432022D+03
 SCF Done:  E(RHF) =  -256.749859066     A.U. after    6 cycles
 E2 =    -0.8037161907D+00 EUMP2 =    -0.25755357525676D+03

 Alpha  occ. eigenvalues --  -15.68954 -15.66856 -15.65061 -15.60805 -11.34143
 Alpha  occ. eigenvalues --   -1.49563  -1.25634  -1.19557  -0.90708  -0.88954
 Alpha  occ. eigenvalues --   -0.80000  -0.67617  -0.67539  -0.56731  -0.47717
 Alpha  occ. eigenvalues --   -0.47025  -0.45342  -0.41739
 Alpha virt. eigenvalues --    0.14030   0.18931   0.19694   0.25172   0.36828
 Alpha virt. eigenvalues --    0.38323   0.47622   0.50022   0.64947   0.73739
 Alpha virt. eigenvalues --    0.73874   0.82430   0.82803   0.89604   0.91855

 Mulliken atomic charges:
              1
     1  N   -0.082460
     2  N   -0.028239
     3  N   -0.468145
     4  H    0.410966
     5  N   -0.301451
     6  C    0.233008
     7  H    0.236322
 Sum of Mulliken atomic charges =   0.00000

 Dipole moment (field-independent basis, Debye):
    X=              2.5584    Y=              4.9245    Z=              0.0008  Tot=              5.5495
 Quadrupole moment (field-independent basis, Debye-Ang):
   XX=            -28.9760   YY=            -26.4549   ZZ=            -28.5348
   XY=              1.8654   XZ=              0.0021   YZ=              0.0006

                     1                      2                      3
                    A"                     A"                     A"
 Frequencies --   586.9425               703.3069               748.0490
 Red. masses --     1.9029                 1.9742                 7.0706
 Frc consts  --     0.3862                 0.5754                 2.3311
 IR Inten    --    98.9560                12.2521                11.0692

                     4                      5                      6
                    A"                     A'                     A'
 Frequencies --   868.2889              1005.7908              1039.5695
 Red. masses --     1.3241                 5.0270                 7.1513
 Frc consts  --     0.5882                 2.9962                 4.5535
 IR Inten    --    22.1093                 1.8322                 1.5886

                     7                      8                      9
                    A'                     A'                     A'
 Frequencies --  1111.5255              1134.3042              1191.6490
 Red. masses --     5.9149                 2.6463                 1.7555
 Frc consts  --     4.3057                 2.0060                 1.4688
 IR Inten    --    21.3846                27.9575                12.4592

                    10                     11                     12
                    A'                     A'                     A'
 Frequencies --  1326.1456              1361.4931              1539.0381
 Red. masses --     2.9059                 8.2260                 2.9904
 Frc consts  --     3.0110                 8.9840                 4.1733
 IR Inten    --     0.2886                18.6317                19.3303

                    13                     14                     15
                    A'                     A'                     A'
 Frequencies --  1577.8876              3362.1125              3730.1602
 Red. masses --     3.8515                 1.1020                 1.0843
 Frc consts  --     5.6497                 7.3396                 8.8887
 IR Inten    --    18.6326                 1.3875               118.8031

 - Thermochemistry -
 -------------------
 Temperature   298.150 Kelvin.  Pressure   1.00000 Atm.
 Atom     1 has atomic number  7 and mass  14.00307

 Molecular mass:    70.02795 amu.
 Principal axes and moments of inertia in atomic units:
                           1         2         3
     Eigenvalues --   170.97175 174.13951 345.11125
           X            0.85535   0.51806   0.00000
           Y           -0.51806   0.85535   0.00000
           Z            0.00000   0.00000   1.00000
 This molecule is an asymmetric top.
 Rotational symmetry number  1.
 Rotational temperatures (Kelvin)      0.50660     0.49738     0.25097
 Rotational constants (GHZ):          10.55579    10.36377     5.22945
 Zero-point vibrational energy     127320.1 (Joules/Mol)
                                   30.43024 (Kcal/Mol)
 Warning -- explicit consideration of   1 degrees of freedom as
           vibrations may cause significant error
 Vibrational temperatures:    844.48  1011.90  1076.27  1249.27  1447.11
          (Kelvin)           1495.71  1599.24  1632.01  1714.52  1908.03
                             1958.88  2214.33  2270.23  4837.32  5366.86

 Zero-point correction=                           0.048494 (Hartree/Particle)
 Thermal correction to Energy=                    0.051918
 Thermal correction to Enthalpy=                  0.052862
 Thermal correction to Gibbs Free Energy=         0.022415
 Sum of electronic and zero-point Energies=           -257.501638
 Sum of electronic and thermal Energies=              -257.498215
 Sum of electronic and thermal Enthalpies=            -257.497270
 Sum of electronic and thermal Free Energies=         -257.527717

                     E (Thermal)             CV                S
                      KCal/Mol        Cal/Mol-Kelvin    Cal/Mol-Kelvin
 Total                   32.579             10.947             64.080
 Electronic               0.000              0.000              0.000
 Translational            0.889              2.981             38.656
 Rotational               0.889              2.981             23.845
 Vibrational             30.801              4.985              1.579
 Vibration     1          0.944              1.060              0.473

 Optimization completed.
    -- Stationary point found.
 Normal termination of Gaussian 09 at Fri Sep  7 15:16:42 2012.
