 Gaussian 09, Revision B.01,
 Gaussian 09:  EM64L-G09RevB.01 12-Aug-2010

 ---
 #G4
 ---
 1/14=-1,18=20,19=15,26=3,38=1/1,3;
 2/9=110,12=2,17=6,18=5,40=1/2;
 3/5=35,7=104,11=2,16=1,25=1,30=1,71=1,74=-5/1,2,3;
 4//1;
 5/5=2,38=5/2;

 -----------------------------------------------------------------
 1htz 1H-Tetrazole casno=288948 state=1 config=1 method=74 basis=0
 -----------------------------------------------------------------
 Symbolic Z-matrix:
 Charge =  0 Multiplicity = 1

 SCF Done:  E(RB3LYP) =  -258.263989467     A.U. after   14 cycles
 SCF Done:  E(RB3LYP) =  -258.267585020     A.U. after   12 cycles
 SCF Done:  E(RB3LYP) =  -258.267652603     A.U. after    9 cycles
 SCF Done:  E(RB3LYP) =  -258.267662572     A.U. after    9 cycles
 SCF Done:  E(RB3LYP) =  -258.267667673     A.U. after    8 cycles
 SCF Done:  E(RB3LYP) =  -258.267668288     A.U. after    7 cycles
 Optimization completed.
    -- Stationary point found.
 Normal termination of Gaussian 09 at Thu Dec  8 12:18:03 2011.

 ----------------------------------------------------------
 #N Geom=AllCheck Guess=TCheck SCRF=Check B3LYP/GTBas3 Freq
 ----------------------------------------------------------

 1htz 1H-Tetrazole casno=288948 state=1 config=1 method=74 basis=0
 -----------------------------------------------------------------
 Redundant internal coordinates taken from checkpoint file:
 /tmp/rdj3/g09-21896/Gau-24071.chk
 Charge =  0 Multiplicity = 1

 SCF Done:  E(RB3LYP) =  -258.267668288     A.U. after    1 cycles

  Exact polarizability:  38.901   0.978  38.235   0.000   0.000  18.284
 Approx polarizability:  68.470   0.438  72.304   0.000   0.000  29.498

                     1                      2                      3
                    A"                     A"                     A"
 Frequencies --   581.8358               693.0856               742.7878
 Red. masses --     1.6661                 2.0764                 8.6598
 Frc consts  --     0.3323                 0.5877                 2.8151
 IR Inten    --    77.7377                 6.1987                 7.5467

                     4                      5                      6
                    A"                     A'                     A'
 Frequencies --   866.6422               972.7475              1013.7866
 Red. masses --     1.3668                 4.9036                 6.1218
 Frc consts  --     0.6048                 2.7338                 3.7070
 IR Inten    --    13.1496                 4.3676                 0.4295

                     7                      8                      9
                    A'                     A'                     A'
 Frequencies --  1048.8179              1070.0734              1150.4510
 Red. masses --     5.2006                 3.3423                 1.9781
 Frc consts  --     3.3706                 2.2549                 1.5425
 IR Inten    --    15.4198                28.6109                15.6772

                    10                     11                     12
                    A'                     A'                     A'
 Frequencies --  1267.6741              1299.9906              1456.9425
 Red. masses --     2.2969                10.9357                 3.1163
 Frc consts  --     2.1747                10.8887                 3.8974
 IR Inten    --     2.9397                13.4395                 8.6376

                    13                     14                     15
                    A'                     A'                     A'
 Frequencies --  1509.1122              3289.3995              3662.5626
 Red. masses --     3.3234                 1.1002                 1.0834
 Frc consts  --     4.4594                 7.0138                 8.5624
 IR Inten    --    17.1386                 0.9829                86.6490

 - Thermochemistry -
 -------------------
 Temperature   298.150 Kelvin.  Pressure   1.00000 Atm.
 Atom     1 has atomic number  7 and mass  14.00307

 Molecular mass:    70.02795 amu.
 Principal axes and moments of inertia in atomic units:
                           1         2         3
     Eigenvalues --   171.27997 174.17632 345.45628
           X            0.87317   0.48741   0.00000
           Y           -0.48741   0.87317   0.00000
           Z            0.00000   0.00000   1.00000
 This molecule is an asymmetric top.
 Rotational symmetry number  1.
 Rotational temperatures (Kelvin)      0.50569     0.49728     0.25072
 Rotational constants (GHZ):          10.53679    10.36158     5.22422
 Zero-point vibrational energy     123370.3 (Joules/Mol)
                                   29.48622 (Kcal/Mol)
 Warning -- explicit consideration of   1 degrees of freedom as
           vibrations may cause significant error
 Vibrational temperatures:    837.13   997.19  1068.70  1246.90  1399.56
          (Kelvin)           1458.61  1509.01  1539.60  1655.24  1823.90
                             1870.39  2096.21  2171.27  4732.71  5269.60

 Zero-point correction=                           0.046989 (Hartree/Particle)
 Thermal correction to Energy=                    0.050455
 Thermal correction to Enthalpy=                  0.051399
 Thermal correction to Gibbs Free Energy=         0.020898
 Sum of electronic and zero-point Energies=           -258.220679
 Sum of electronic and thermal Energies=              -258.217214
 Sum of electronic and thermal Enthalpies=            -258.216269
 Sum of electronic and thermal Free Energies=         -258.246770

                     E (Thermal)             CV                S
                      KCal/Mol        Cal/Mol-Kelvin    Cal/Mol-Kelvin
 Total                   31.661             11.287             64.194
 Electronic               0.000              0.000              0.000
 Translational            0.889              2.981             38.656
 Rotational               0.889              2.981             23.848
 Vibrational             29.883              5.325              1.690
 Vibration     1          0.939              1.071              0.482

 Optimization completed.
    -- Stationary point found.
 Normal termination of Gaussian 09 at Thu Dec  8 12:18:54 2011.

 -----------------------------------------------------------------
 #N Geom=AllCheck Guess=TCheck SCRF=Check CCSD(T,E4T,FrzG4)/GTBas1
 -----------------------------------------------------------------

 1htz 1H-Tetrazole casno=288948 state=1 config=1 method=74 basis=0
 -----------------------------------------------------------------
 Redundant internal coordinates taken from checkpoint file:
 /tmp/rdj3/g09-21896/Gau-24071.chk
 Charge =  0 Multiplicity = 1

 SCF Done:  E(RHF) =  -256.749851802     A.U. after   15 cycles
 E2 =    -0.7848444782D+00 EUMP2 =    -0.25753469628061D+03
 CCSD(T)= -0.25757659520D+03
 TQ=-257.5833827\MP4SDQ=-257.5425429\CCSD=-257.5413529\CCSD(T)=-257.576
 Normal termination of Gaussian 09 at Thu Dec  8 12:19:27 2011.

 ---------------------------------------------------------
 #N Geom=AllCheck Guess=TCheck SCRF=Check MP4=FrzG4/GTBas2
 ---------------------------------------------------------

 1htz 1H-Tetrazole casno=288948 state=1 config=1 method=74 basis=0
 -----------------------------------------------------------------
 Redundant internal coordinates taken from checkpoint file:
 /tmp/rdj3/g09-21896/Gau-24071.chk
 Charge =  0 Multiplicity = 1

 SCF Done:  E(RHF) =  -256.757516151     A.U. after   13 cycles
 E2 =    -0.7938666731D+00 EUMP2 =    -0.25755138282389D+03
 Normal termination of Gaussian 09 at Thu Dec  8 12:19:48 2011.

 ---------------------------------------------------------
 #N Geom=AllCheck Guess=TCheck SCRF=Check MP4=FrzG4/GTBas3
 ---------------------------------------------------------

 1htz 1H-Tetrazole casno=288948 state=1 config=1 method=74 basis=0
 -----------------------------------------------------------------
 Redundant internal coordinates taken from checkpoint file:
 /tmp/rdj3/g09-21896/Gau-24071.chk
 Charge =  0 Multiplicity = 1

 SCF Done:  E(RHF) =  -256.777107030     A.U. after   12 cycles
 E2 =    -0.9165829926D+00 EUMP2 =    -0.25769369002234D+03
 Normal termination of Gaussian 09 at Thu Dec  8 12:21:47 2011.

 -----------------------------------------------------------
 #N Geom=AllCheck Guess=TCheck SCRF=Check MP2=Full/GTLargeXP
 -----------------------------------------------------------

 1htz 1H-Tetrazole casno=288948 state=1 config=1 method=74 basis=0
 -----------------------------------------------------------------
 Redundant internal coordinates taken from checkpoint file:
 /tmp/rdj3/g09-21896/Gau-24071.chk
 Charge =  0 Multiplicity = 1

 SCF Done:  E(RHF) =  -256.841598192     A.U. after   14 cycles
 E2 =    -0.1190684224D+01 EUMP2 =    -0.25803228241596D+03
 Normal termination of Gaussian 09 at Thu Dec  8 12:23:10 2011.
 SCF Done:  E(RHF) =  -256.861671959     A.U. after   10 cycles
 Normal termination of Gaussian 09 at Thu Dec  8 12:26:33 2011.

                         Standard orientation:
 ---------------------------------------------------------------------
 Center     Atomic      Atomic             Coordinates (Angstroms)
 Number     Number       Type             X           Y           Z
 ---------------------------------------------------------------------
      1          7           0       -0.722496   -0.925620    0.000000
      2          7           0       -1.119916    0.300655    0.000000
      3          7           0        0.000000    1.053971    0.000000
      4          1           0       -0.062794    2.059525    0.000000
      5          7           0        0.638648   -1.005977    0.000000
      6          6           0        1.066194    0.235646    0.000000
      7          1           0        2.091981    0.565402    0.000000
 ---------------------------------------------------------------------

 SCF Done:  E(RHF) =  -256.865477976     A.U. after    8 cycles

 The electronic state is 1-A'.
 Alpha  occ. eigenvalues --  -15.68124 -15.66407 -15.64831 -15.60411 -11.33863
 Alpha  occ. eigenvalues --   -1.49288  -1.25525  -1.19551  -0.90833  -0.88947
 Alpha  occ. eigenvalues --   -0.80014  -0.67799  -0.67767  -0.57149  -0.48102
 Alpha  occ. eigenvalues --   -0.47517  -0.45729  -0.42073
 Alpha virt. eigenvalues --    0.02249   0.04143   0.04993   0.05962   0.08405
 Alpha virt. eigenvalues --    0.08844   0.10606   0.10715   0.11794   0.12044
 Alpha virt. eigenvalues --    0.12963   0.13468   0.14648   0.14893   0.15926

 Mulliken atomic charges:
              1
     1  N   -0.098392
     2  N   -0.106198
     3  N   -0.246143
     4  H    0.389137
     5  N   -0.299879
     6  C    0.114580
     7  H    0.246895
 Sum of Mulliken atomic charges =   0.00000

 Dipole moment (field-independent basis, Debye):
    X=              2.6408    Y=              4.8952    Z=              0.0000  Tot=              5.5621
 Quadrupole moment (field-independent basis, Debye-Ang):
   XX=            -28.9225   YY=            -26.7028   ZZ=            -29.0426
   XY=              2.1078   XZ=              0.0000   YZ=              0.0000

 Normal termination of Gaussian 09 at Thu Dec  8 12:50:19 2011.
