 Gaussian 09, Revision B.01,
 Gaussian 09:  EM64L-G09RevB.01 12-Aug-2010

 ------------------------
 #TPSSh/6-31G(d) opt freq
 ------------------------
 -----------------------------------------------------------------
 1htz 1H-Tetrazole casno=288948 state=1 config=1 method=75 basis=1
 -----------------------------------------------------------------
 Symbolic Z-matrix:
 Charge =  0 Multiplicity = 1

 SCF Done:  E(RTPSSh) =  -258.261613255     A.U. after   15 cycles
 SCF Done:  E(RTPSSh) =  -258.266689176     A.U. after   13 cycles
 SCF Done:  E(RTPSSh) =  -258.266791009     A.U. after   10 cycles
 SCF Done:  E(RTPSSh) =  -258.266799638     A.U. after    9 cycles
 SCF Done:  E(RTPSSh) =  -258.266802034     A.U. after    9 cycles
 SCF Done:  E(RTPSSh) =  -258.266802674     A.U. after    8 cycles
 Optimization completed.
    -- Stationary point found.
 Normal termination of Gaussian 09 at Tue Feb  5 18:16:21 2013.

 --------------------------------------------------------------------
 #T Geom=AllCheck Guess=TCheck SCRF=Check GenChk RTPSSh/6-31G(d) Freq
 --------------------------------------------------------------------

 1htz 1H-Tetrazole casno=288948 state=1 config=1 method=75 basis=1
 -----------------------------------------------------------------
 Redundant internal coordinates taken from checkpoint file:
 /tmp/rdj3/g09-4782/Gau-5888.chk
 Charge =  0 Multiplicity = 1

                         Standard orientation:
 ---------------------------------------------------------------------
 Center     Atomic      Atomic             Coordinates (Angstroms)
 Number     Number       Type             X           Y           Z
 ---------------------------------------------------------------------
      1          7           0       -0.723222   -0.928715    0.000000
      2          7           0       -1.125448    0.303059    0.000000
      3          7           0        0.000000    1.056176    0.000000
      4          1           0       -0.063602    2.066271    0.000000
      5          7           0        0.641077   -1.009624    0.000000
      6          6           0        1.069920    0.236835    0.000000
      7          1           0        2.097231    0.566451    0.000000
 ---------------------------------------------------------------------

 SCF Done:  E(RTPSSh) =  -258.266802674     A.U. after    1 cycles

 The electronic state is 1-A'.
 Alpha  occ. eigenvalues --  -14.38089 -14.34321 -14.32532 -14.29736 -10.21674
 Alpha  occ. eigenvalues --   -1.11557  -0.92431  -0.87104  -0.66183  -0.64393
 Alpha  occ. eigenvalues --   -0.57826  -0.48230  -0.47698  -0.36122  -0.31694
 Alpha  occ. eigenvalues --   -0.29655  -0.28716  -0.27372
 Alpha virt. eigenvalues --   -0.03554   0.00093   0.05325   0.10361   0.16824
 Alpha virt. eigenvalues --    0.19180   0.26654   0.31390   0.39494   0.51071
 Alpha virt. eigenvalues --    0.52143   0.58826   0.60175   0.63651   0.66174

 Mulliken atomic charges:
              1
     1  N   -0.082044
     2  N   -0.040136
     3  N   -0.431864
     4  H    0.379588
     5  N   -0.310186
     6  C    0.262045
     7  H    0.222596
 Sum of Mulliken atomic charges =   0.00000

 Dipole moment (field-independent basis, Debye):
    X=              2.4848    Y=              4.7427    Z=              0.0000  Tot=              5.3542
  Exact polarizability:  38.162   0.976  37.659   0.000   0.000  15.678
 Approx polarizability:  71.782   0.025  76.209   0.000   0.000  24.973
 Calling FoFJK, ICntrl=    100127 FMM=F ISym2X=1 I1Cent= 0 IOpClX= 0 NMat=1 NMatS=1 NMatT=0.
 Full mass-weighted force constant matrix:
 Low frequencies ---  -15.5154   -7.8166    0.0003    0.0010    0.0011   15.6680
 Low frequencies ---  573.8465  688.8817  732.1638
 Harmonic frequencies (cm**-1), IR intensities (KM/Mole), Raman scattering
 activities (A**4/AMU), depolarization ratios for plane and unpolarized
 incident light, reduced masses (AMU), force constants (mDyne/A),
 and normal coordinates:
                     1                      2                      3
                    A"                     A"                     A"
 Frequencies --   573.8462               688.8817               732.1638
 Red. masses --     1.8539                 1.9768                 7.6763
 Frc consts  --     0.3597                 0.5527                 2.4245
 IR Inten    --    87.9499                10.9969                 9.1129

                     4                      5                      6
                    A"                     A'                     A'
 Frequencies --   844.2671               959.9164              1000.7401
 Red. masses --     1.3271                 5.0241                 5.8809
 Frc consts  --     0.5573                 2.7275                 3.4701
 IR Inten    --    20.8287                 3.7080                 0.7215

                     7                      8                      9
                    A'                     A'                     A'
 Frequencies --  1043.8631              1061.6004              1151.2495
 Red. masses --     5.0784                 4.1651                 1.8204
 Frc consts  --     3.2603                 2.7656                 1.4215
 IR Inten    --    16.1537                27.8086                15.1438

                    10                     11                     12
                    A'                     A'                     A'
 Frequencies --  1265.3343              1281.2630              1464.4801
 Red. masses --     2.3277                11.3186                 3.1447
 Frc consts  --     2.1957                10.9476                 3.9737
 IR Inten    --     4.4582                13.1428                 9.2337

                    13                     14                     15
                    A'                     A'                     A'
 Frequencies --  1509.2295              3314.6765              3635.0573
 Red. masses --     3.1095                 1.1000                 1.0836
 Frc consts  --     4.1730                 7.1206                 8.4358
 IR Inten    --    17.5242                 0.3749                70.2831

 Optimization completed.
    -- Stationary point found.
 Normal termination of Gaussian 09 at Tue Feb  5 18:16:33 2013.
