 Gaussian 09, Revision B.01,
 Gaussian 09:  EM64L-G09RevB.01 12-Aug-2010

 ---------------------------
 #TPSSh/6-31+G(d,p) opt freq
 ---------------------------
 -----------------------------------------------------------------
 1htz 1H-Tetrazole casno=288948 state=1 config=1 method=75 basis=4
 -----------------------------------------------------------------
 Symbolic Z-matrix:
 Charge =  0 Multiplicity = 1

 SCF Done:  E(RTPSSh) =  -258.276336145     A.U. after   12 cycles
 SCF Done:  E(RTPSSh) =  -258.281284491     A.U. after   12 cycles
 SCF Done:  E(RTPSSh) =  -258.281381046     A.U. after   11 cycles
 SCF Done:  E(RTPSSh) =  -258.281394283     A.U. after   10 cycles
 SCF Done:  E(RTPSSh) =  -258.281401262     A.U. after    9 cycles
 SCF Done:  E(RTPSSh) =  -258.281402355     A.U. after    9 cycles
 Optimization completed.
    -- Stationary point found.
 Normal termination of Gaussian 09 at Thu Feb  7 14:22:12 2013.

 ----------------------------------------------------------------------
 #T Geom=AllCheck Guess=TCheck SCRF=Check GenChk RTPSSh/6-31+G(d,p) Fre
 q
 ----------------------------------------------------------------------

 1htz 1H-Tetrazole casno=288948 state=1 config=1 method=75 basis=4
 -----------------------------------------------------------------
 Redundant internal coordinates taken from checkpoint file:
 /tmp/rdj3/g09-13928/Gau-14987.chk
 Charge =  0 Multiplicity = 1

                         Standard orientation:
 ---------------------------------------------------------------------
 Center     Atomic      Atomic             Coordinates (Angstroms)
 Number     Number       Type             X           Y           Z
 ---------------------------------------------------------------------
      1          7           0       -0.723342   -0.928947    0.000000
      2          7           0       -1.124428    0.302495    0.000000
      3          7           0        0.000000    1.056679    0.000000
      4          1           0       -0.062013    2.066079    0.000000
      5          7           0        0.639276   -1.009292    0.000000
      6          6           0        1.070520    0.237268    0.000000
      7          1           0        2.098351    0.563767    0.000000
 ---------------------------------------------------------------------

 SCF Done:  E(RTPSSh) =  -258.281402355     A.U. after    1 cycles

 The electronic state is 1-A'.
 Alpha  occ. eigenvalues --  -14.39036 -14.35490 -14.33743 -14.30990 -10.22550
 Alpha  occ. eigenvalues --   -1.12728  -0.93503  -0.88177  -0.67085  -0.65398
 Alpha  occ. eigenvalues --   -0.58648  -0.49097  -0.48712  -0.37200  -0.32785
 Alpha  occ. eigenvalues --   -0.30683  -0.29860  -0.28529
 Alpha virt. eigenvalues --   -0.04893  -0.01522  -0.01475   0.02190   0.04290
 Alpha virt. eigenvalues --    0.05208   0.07257   0.08754   0.10816   0.12852
 Alpha virt. eigenvalues --    0.14261   0.14319   0.16635   0.17675   0.17807

 Mulliken atomic charges:
              1
     1  N   -0.011379
     2  N    0.003809
     3  N   -0.296120
     4  H    0.348902
     5  N   -0.235671
     6  C   -0.006848
     7  H    0.197308
 Sum of Mulliken atomic charges =   0.00000

 Dipole moment (field-independent basis, Debye):
    X=              2.6075    Y=              4.8752    Z=              0.0000  Tot=              5.5287
  Exact polarizability:  44.381   0.404  43.997   0.000   0.000  23.930
 Approx polarizability:  77.414  -0.276  81.999   0.000   0.000  35.661
 Calling FoFJK, ICntrl=    100127 FMM=F ISym2X=1 I1Cent= 0 IOpClX= 0 NMat=1 NMatS=1 NMatT=0.
 Full mass-weighted force constant matrix:
 Low frequencies ---  -15.4525   -8.2689   -0.0012   -0.0011    0.0009   15.9941
 Low frequencies ---  578.6461  684.5424  726.7652
 Harmonic frequencies (cm**-1), IR intensities (KM/Mole), Raman scattering
 activities (A**4/AMU), depolarization ratios for plane and unpolarized
 incident light, reduced masses (AMU), force constants (mDyne/A),
 and normal coordinates:
                     1                      2                      3
                    A"                     A"                     A"
 Frequencies --   578.6459               684.5424               726.7652
 Red. masses --     1.9442                 1.8807                 7.8316
 Frc consts  --     0.3835                 0.5193                 2.4372
 IR Inten    --    80.7096                13.3478                 8.9872

                     4                      5                      6
                    A"                     A'                     A'
 Frequencies --   846.7191               958.4192               998.8090
 Red. masses --     1.3241                 4.9684                 6.1545
 Frc consts  --     0.5593                 2.6889                 3.6175
 IR Inten    --    25.1926                 3.4996                 0.8861

                     7                      8                      9
                    A'                     A'                     A'
 Frequencies --  1041.4937              1059.8981              1145.2893
 Red. masses --     4.7310                 4.3064                 1.8265
 Frc consts  --     3.0236                 2.8503                 1.4116
 IR Inten    --    16.5314                28.4394                15.4677

                    10                     11                     12
                    A'                     A'                     A'
 Frequencies --  1262.1837              1280.8807              1457.4295
 Red. masses --     2.3045                11.2829                 3.1252
 Frc consts  --     2.1631                10.9066                 3.9112
 IR Inten    --     3.3495                14.9458                 9.8104

                    13                     14                     15
                    A'                     A'                     A'
 Frequencies --  1503.7866              3308.3486              3645.8999
 Red. masses --     3.1627                 1.1003                 1.0839
 Frc consts  --     4.2138                 7.0958                 8.4892
 IR Inten    --    16.9499                 1.3923                85.1870

 Optimization completed.
    -- Stationary point found.
 Normal termination of Gaussian 09 at Thu Feb  7 14:22:31 2013.
