 Gaussian 09, Revision B.01,
 Gaussian 09:  EM64L-G09RevB.01 12-Aug-2010

 -----------------------
 #TPSSh/cc-pVTZ opt freq
 -----------------------
 -----------------------------------------------------------------
 1htz 1H-Tetrazole casno=288948 state=1 config=1 method=75 basis=6
 -----------------------------------------------------------------
 Symbolic Z-matrix:
 Charge =  0 Multiplicity = 1

 SCF Done:  E(RTPSSh) =  -258.355501062     A.U. after   14 cycles
 SCF Done:  E(RTPSSh) =  -258.358865144     A.U. after   12 cycles
 SCF Done:  E(RTPSSh) =  -258.358949663     A.U. after    9 cycles
 SCF Done:  E(RTPSSh) =  -258.358955129     A.U. after    8 cycles
 SCF Done:  E(RTPSSh) =  -258.358958496     A.U. after    8 cycles
 SCF Done:  E(RTPSSh) =  -258.358959046     A.U. after    7 cycles
 Optimization completed.
    -- Stationary point found.
 Normal termination of Gaussian 09 at Wed Feb 13 10:09:47 2013.

 -------------------------------------------------------------------
 #T Geom=AllCheck Guess=TCheck SCRF=Check GenChk RTPSSh/CC-pVTZ Freq
 -------------------------------------------------------------------

 1htz 1H-Tetrazole casno=288948 state=1 config=1 method=75 basis=6
 -----------------------------------------------------------------
 Redundant internal coordinates taken from checkpoint file:
 /tmp/rdj3/g09-3836/Gau-5091.chk
 Charge =  0 Multiplicity = 1

                         Standard orientation:
 ---------------------------------------------------------------------
 Center     Atomic      Atomic             Coordinates (Angstroms)
 Number     Number       Type             X           Y           Z
 ---------------------------------------------------------------------
      1          7           0       -0.722601   -0.924496    0.000000
      2          7           0       -1.120071    0.300886    0.000000
      3          7           0        0.000000    1.053156    0.000000
      4          1           0       -0.060101    2.059471    0.000000
      5          7           0        0.639023   -1.005940    0.000000
      6          6           0        1.065741    0.235329    0.000000
      7          1           0        2.091204    0.563310    0.000000
 ---------------------------------------------------------------------

 SCF Done:  E(RTPSSh) =  -258.358959046     A.U. after    1 cycles

 The electronic state is 1-A'.
 Alpha  occ. eigenvalues --  -14.36359 -14.32880 -14.31186 -14.28324 -10.20512
 Alpha  occ. eigenvalues --   -1.12007  -0.92705  -0.87471  -0.66328  -0.64781
 Alpha  occ. eigenvalues --   -0.58097  -0.48424  -0.48377  -0.36641  -0.32217
 Alpha  occ. eigenvalues --   -0.30184  -0.29144  -0.27936
 Alpha virt. eigenvalues --   -0.04033  -0.00609   0.01414   0.05900   0.13998
 Alpha virt. eigenvalues --    0.15256   0.16920   0.23282   0.27445   0.27716
 Alpha virt. eigenvalues --    0.35053   0.36078   0.38628   0.41128   0.42128

 Mulliken atomic charges:
              1
     1  N   -0.074905
     2  N   -0.083089
     3  N    0.000455
     4  H    0.178100
     5  N   -0.160852
     6  C    0.017728
     7  H    0.122564
 Sum of Mulliken atomic charges =   0.00000

 Dipole moment (field-independent basis, Debye):
    X=              2.4153    Y=              4.6605    Z=              0.0000  Tot=              5.2492
  Exact polarizability:  41.946   0.851  41.312   0.000   0.000  20.840
 Approx polarizability:  76.334   0.433  80.356   0.000   0.000  33.476
 Calling FoFJK, ICntrl=    100127 FMM=F ISym2X=1 I1Cent= 0 IOpClX= 0 NMat=1 NMatS=1 NMatT=0.
 Full mass-weighted force constant matrix:
 Low frequencies ---  -10.9446   -8.7457   -0.0006    0.0008    0.0013   14.9528
 Low frequencies ---  586.3580  690.5795  738.0668
 Harmonic frequencies (cm**-1), IR intensities (KM/Mole), Raman scattering
 activities (A**4/AMU), depolarization ratios for plane and unpolarized
 incident light, reduced masses (AMU), force constants (mDyne/A),
 and normal coordinates:
                     1                      2                      3
                    A"                     A"                     A"
 Frequencies --   586.3579               690.5795               738.0667
 Red. masses --     1.7737                 1.9916                 7.7936
 Frc consts  --     0.3593                 0.5596                 2.5014
 IR Inten    --    74.0252                 7.5016                 8.7946

                     4                      5                      6
                    A"                     A'                     A'
 Frequencies --   862.4565               953.4475               999.4473
 Red. masses --     1.3611                 5.3559                 5.3687
 Frc consts  --     0.5965                 2.8686                 3.1597
 IR Inten    --    19.6858                 4.6913                 1.0829

                     7                      8                      9
                    A'                     A'                     A'
 Frequencies --  1026.4437              1050.0929              1142.4879
 Red. masses --     6.1812                 3.4186                 1.9611
 Frc consts  --     3.8370                 2.2210                 1.5081
 IR Inten    --    13.5290                27.2396                17.0189

                    10                     11                     12
                    A'                     A'                     A'
 Frequencies --  1254.9272              1276.1138              1449.3782
 Red. masses --     2.2690                11.0247                 3.0274
 Frc consts  --     2.1053                10.5779                 3.7469
 IR Inten    --     4.3092                10.4112                 8.5872

                    13                     14                     15
                    A'                     A'                     A'
 Frequencies --  1498.8661              3272.8327              3629.4112
 Red. masses --     3.1819                 1.1004                 1.0835
 Frc consts  --     4.2118                 6.9447                 8.4094
 IR Inten    --    15.4760                 0.6646                75.5929

 Optimization completed.
    -- Stationary point found.
 Normal termination of Gaussian 09 at Wed Feb 13 10:11:19 2013.
