 Gaussian 09, Revision B.01,
 Gaussian 09:  EM64L-G09RevB.01 12-Aug-2010

 ------------------------------------------------------------------
 #B2PLYP=FULL/6-31G* opt=tight freq=anharm integral(grid=ultrafine)
 ------------------------------------------------------------------

 ----------------------------------------------------------
 1H tetrazole c CH-NH-N=N-N= casno=288948 method=79 basis=1
 ----------------------------------------------------------
 Symbolic Z-matrix:
 Charge =  0 Multiplicity = 1

 SCF Done:  E(RB2PLYP) =  -257.746744730     A.U. after   14 cycles
 E2(B2PLYP) =    -0.2635364721D+00 E(B2PLYP) =    -0.25801028120172D+03
 SCF Done:  E(RB2PLYP) =  -257.746734364     A.U. after   13 cycles
 E2(B2PLYP) =    -0.2686688418D+00 E(B2PLYP) =    -0.25801540320608D+03
 SCF Done:  E(RB2PLYP) =  -257.746144902     A.U. after   11 cycles
 E2(B2PLYP) =    -0.2693815518D+00 E(B2PLYP) =    -0.25801552645343D+03
 SCF Done:  E(RB2PLYP) =  -257.745996433     A.U. after   10 cycles
 E2(B2PLYP) =    -0.2695405154D+00 E(B2PLYP) =    -0.25801553694839D+03
 SCF Done:  E(RB2PLYP) =  -257.746079094     A.U. after    9 cycles
 E2(B2PLYP) =    -0.2694655829D+00 E(B2PLYP) =    -0.25801554467733D+03
 SCF Done:  E(RB2PLYP) =  -257.746116157     A.U. after    8 cycles
 E2(B2PLYP) =    -0.2694295692D+00 E(B2PLYP) =    -0.25801554572642D+03
 SCF Done:  E(RB2PLYP) =  -257.746120651     A.U. after    8 cycles
 E2(B2PLYP) =    -0.2694253241D+00 E(B2PLYP) =    -0.25801554597506D+03
 SCF Done:  E(RB2PLYP) =  -257.746114828     A.U. after    7 cycles
 E2(B2PLYP) =    -0.2694311723D+00 E(B2PLYP) =    -0.25801554600078D+03
 Optimization completed.
    -- Stationary point found.
 Normal termination of Gaussian 09 at Thu Jul 19 12:55:46 2012.

 ----------------------------------------------------------------------
 #N Geom=AllCheck Guess=TCheck SCRF=Check GenChk RB2PLYP-Full/6-31G(d)
 Freq
 ----------------------------------------------------------------------

 1H tetrazole c CH-NH-N=N-N= casno=288948 method=79 basis=1
 ----------------------------------------------------------
 Redundant internal coordinates taken from checkpoint file:
 /tmp/rdj3/g09-6793/Gau-22417.chk
 Charge =  0 Multiplicity = 1

                         Standard orientation:
 ---------------------------------------------------------------------
 Center     Atomic      Atomic             Coordinates (Angstroms)
 Number     Number       Type             X           Y           Z
 ---------------------------------------------------------------------
      1          7           0       -0.723159   -0.930978    0.000000
      2          7           0       -1.125200    0.303881    0.000000
      3          7           0        0.000000    1.056388    0.000000
      4          1           0       -0.063496    2.064777    0.000000
      5          7           0        0.641697   -1.008834    0.000000
      6          6           0        1.069072    0.237671    0.000000
      7          1           0        2.095701    0.565999    0.000000
 ---------------------------------------------------------------------

 SCF Done:  E(RB2PLYP) =  -257.746114828     A.U. after    1 cycles
 E2(B2PLYP) =    -0.2694311738D+00 E(B2PLYP) =    -0.25801554600229D+03
 E2(B2PLYP) =    -0.2694311738D+00 E(B2PLYP) =    -0.25801554600229D+03
 SCF Done:  E(RB2PLYP) =  -257.745899861     A.U. after    9 cycles
 E2(B2PLYP) =    -0.2695569534D+00 E(B2PLYP) =    -0.25801545681427D+03
 E2(B2PLYP) =    -0.2695569534D+00 E(B2PLYP) =    -0.25801545681427D+03
 E2(B2PLYP) =    -0.2693070239D+00 E(B2PLYP) =    -0.25801545276341D+03
 E2(B2PLYP) =    -0.2693070239D+00 E(B2PLYP) =    -0.25801545276341D+03
 E2(B2PLYP) =    -0.2694729963D+00 E(B2PLYP) =    -0.25801547208777D+03
 E2(B2PLYP) =    -0.2694729963D+00 E(B2PLYP) =    -0.25801547208777D+03
 E2(B2PLYP) =    -0.2693909196D+00 E(B2PLYP) =    -0.25801546917153D+03
 E2(B2PLYP) =    -0.2693909196D+00 E(B2PLYP) =    -0.25801546917153D+03
 E2(B2PLYP) =    -0.2694498797D+00 E(B2PLYP) =    -0.25801553059676D+03
 E2(B2PLYP) =    -0.2694498797D+00 E(B2PLYP) =    -0.25801553059676D+03
 SCF Done:  E(RB2PLYP) =  -257.746052049     A.U. after   10 cycles
 E2(B2PLYP) =    -0.2694876699D+00 E(B2PLYP) =    -0.25801553971847D+03
 E2(B2PLYP) =    -0.2694876699D+00 E(B2PLYP) =    -0.25801553971847D+03
 SCF Done:  E(RB2PLYP) =  -257.746164029     A.U. after   10 cycles
 E2(B2PLYP) =    -0.2693755765D+00 E(B2PLYP) =    -0.25801553960550D+03
 E2(B2PLYP) =    -0.2693755765D+00 E(B2PLYP) =    -0.25801553960550D+03
 SCF Done:  E(RB2PLYP) =  -257.746108963     A.U. after    8 cycles
 E2(B2PLYP) =    -0.2694321994D+00 E(B2PLYP) =    -0.25801554116284D+03
 E2(B2PLYP) =    -0.2694321994D+00 E(B2PLYP) =    -0.25801554116284D+03
 SCF Done:  E(RB2PLYP) =  -257.746108963     A.U. after    9 cycles
 E2(B2PLYP) =    -0.2694322005D+00 E(B2PLYP) =    -0.25801554116387D+03
 E2(B2PLYP) =    -0.2694322005D+00 E(B2PLYP) =    -0.25801554116387D+03
 SCF Done:  E(RB2PLYP) =  -257.746110647     A.U. after    8 cycles
 E2(B2PLYP) =    -0.2694316924D+00 E(B2PLYP) =    -0.25801554233984D+03
 E2(B2PLYP) =    -0.2694316924D+00 E(B2PLYP) =    -0.25801554233984D+03
 SCF Done:  E(RB2PLYP) =  -257.746110647     A.U. after    9 cycles
 E2(B2PLYP) =    -0.2694316918D+00 E(B2PLYP) =    -0.25801554233925D+03
 E2(B2PLYP) =    -0.2694316918D+00 E(B2PLYP) =    -0.25801554233925D+03
 SCF Done:  E(RB2PLYP) =  -257.746111134     A.U. after    9 cycles
 E2(B2PLYP) =    -0.2694316227D+00 E(B2PLYP) =    -0.25801554275702D+03
 E2(B2PLYP) =    -0.2694316227D+00 E(B2PLYP) =    -0.25801554275702D+03
 SCF Done:  E(RB2PLYP) =  -257.746111134     A.U. after    9 cycles
 E2(B2PLYP) =    -0.2694316224D+00 E(B2PLYP) =    -0.25801554275664D+03
 E2(B2PLYP) =    -0.2694316224D+00 E(B2PLYP) =    -0.25801554275664D+03
 SCF Done:  E(RB2PLYP) =  -257.746111951     A.U. after    9 cycles
 E2(B2PLYP) =    -0.2694318325D+00 E(B2PLYP) =    -0.25801554378342D+03
 E2(B2PLYP) =    -0.2694318325D+00 E(B2PLYP) =    -0.25801554378342D+03
 SCF Done:  E(RB2PLYP) =  -257.746111951     A.U. after   10 cycles
 E2(B2PLYP) =    -0.2694318315D+00 E(B2PLYP) =    -0.25801554378241D+03
 E2(B2PLYP) =    -0.2694318315D+00 E(B2PLYP) =    -0.25801554378241D+03

 Alpha  occ. eigenvalues --  -14.97059 -14.94061 -14.92258 -14.88804 -10.72646
 Alpha  occ. eigenvalues --   -1.28726  -1.07617  -1.01963  -0.77644  -0.75901
 Alpha  occ. eigenvalues --   -0.68263  -0.57447  -0.57081  -0.45899  -0.38373
 Alpha  occ. eigenvalues --   -0.37817  -0.36707  -0.35609
 Alpha virt. eigenvalues --    0.04151   0.08466   0.11063   0.16522   0.26025
 Alpha virt. eigenvalues --    0.26793   0.35687   0.39277   0.50353   0.60581
 Alpha virt. eigenvalues --    0.60596   0.68604   0.69233   0.74232   0.76302

 Mulliken atomic charges:
              1
     1  N   -0.083301
     2  N   -0.039356
     3  N   -0.427847
     4  H    0.384140
     5  N   -0.293859
     6  C    0.244639
     7  H    0.215584
 Sum of Mulliken atomic charges =   0.00000

 Dipole moment (field-independent basis, Debye):
    X=              2.5081    Y=              4.7996    Z=             -0.0147  Tot=              5.4154
 Quadrupole moment (field-independent basis, Debye-Ang):
   XX=            -28.7746   YY=            -26.1503   ZZ=            -28.3218
   XY=              1.8039   XZ=             -0.0039   YZ=             -0.0311

  Exact polarizability:  37.463   1.031  36.909  -0.002  -0.014  15.453
 Approx polarizability:  50.591   0.095  53.591  -0.002   0.000  20.156

                     1                      2                      3
                    A"                     A"                     A"
 Frequencies --   572.9968               693.0505               736.3024
 Red. masses --     1.8065                 2.0127                 7.7907
 Frc consts  --     0.3495                 0.5696                 2.4885
 IR Inten    --    91.8760                10.0589                 9.2675

                     4                      5                      6
                    A"                     A'                     A'
 Frequencies --   846.1121               968.6594              1012.2513
 Red. masses --     1.3323                 5.0833                 6.2843
 Frc consts  --     0.5620                 2.8102                 3.7939
 IR Inten    --    19.6614                 3.9927                 0.4567

                     7                      8                      9
                    A'                     A'                     A'
 Frequencies --  1057.0548              1072.8603              1159.8728
 Red. masses --     5.2970                 3.8579                 1.8138
 Frc consts  --     3.4872                 2.6163                 1.4376
 IR Inten    --    14.1608                30.4365                15.0277

                    10                     11                     12
                    A'                     A'                     A'
 Frequencies --  1267.6802              1275.6712              1474.6467
 Red. masses --     4.7157                 3.3442                 3.1411
 Frc consts  --     4.4649                 3.2064                 4.0244
 IR Inten    --    15.0310                 0.9285                10.4696

                    13                     14                     15
                    A'                     A'                     A'
 Frequencies --  1512.3206              3339.4016              3673.4754
 Red. masses --     3.0376                 1.1004                 1.0840
 Frc consts  --     4.0932                 7.2300                 8.6185
 IR Inten    --    19.7378                 1.2235                92.2729

 - Thermochemistry -
 -------------------
 Temperature   298.150 Kelvin.  Pressure   1.00000 Atm.
 Atom     1 has atomic number  7 and mass  14.00307

 Molecular mass:    70.02795 amu.
 Principal axes and moments of inertia in atomic units:
                           1         2         3
     Eigenvalues --   172.37643 175.49303 347.86946
           X            0.85291   0.52207   0.00000
           Y           -0.52207   0.85291   0.00000
           Z            0.00000   0.00000   1.00000
 This molecule is an asymmetric top.
 Rotational symmetry number  1.
 Rotational temperatures (Kelvin)      0.50247     0.49355     0.24898
 Rotational constants (GHZ):          10.46977    10.28383     5.18798
 Zero-point vibrational energy     123588.3 (Joules/Mol)
                                   29.53832 (Kcal/Mol)
 Warning -- explicit consideration of   1 degrees of freedom as
           vibrations may cause significant error
 Vibrational temperatures:    824.41   997.14  1059.37  1217.37  1393.68
          (Kelvin)           1456.40  1520.86  1543.60  1668.80  1823.91
                             1835.40  2121.68  2175.89  4804.65  5285.31

 Zero-point correction=                           0.047072 (Hartree/Particle)
 Thermal correction to Energy=                    0.050550
 Thermal correction to Enthalpy=                  0.051494
 Thermal correction to Gibbs Free Energy=         0.020967
 Sum of electronic and zero-point Energies=           -257.968474
 Sum of electronic and thermal Energies=              -257.964996
 Sum of electronic and thermal Enthalpies=            -257.964052
 Sum of electronic and thermal Free Energies=         -257.994579

                     E (Thermal)             CV                S
                      KCal/Mol        Cal/Mol-Kelvin    Cal/Mol-Kelvin
 Total                   31.720             11.344             64.250
 Electronic               0.000              0.000              0.000
 Translational            0.889              2.981             38.656
 Rotational               0.889              2.981             23.869
 Vibrational             29.943              5.382              1.725
 Vibration     1          0.929              1.090              0.499

 Optimization completed.
    -- Stationary point found.
 Normal termination of Gaussian 09 at Thu Jul 19 13:46:04 2012.
