 Gaussian 98, Revision A.4,
 Gaussian 98:  x86-Linux-G98RevA.4 11-Sep-1998

 ------------------------
 #B3LYP/CEP-121G opt freq
 ------------------------

 ----------------------------------------
 1H tetrazole c CH-NH-N=N-N= casno=288948
 ----------------------------------------
 Symbolic Z-matrix:
 Charge =  0 Multiplicity = 1

 SCF Done:  E(RB+HF-LYP) =  -46.2825220978     A.U. after   17 cycles
 SCF Done:  E(RB+HF-LYP) =  -46.3056438190     A.U. after   15 cycles
 SCF Done:  E(RB+HF-LYP) =  -46.3063441165     A.U. after   13 cycles
 SCF Done:  E(RB+HF-LYP) =  -46.3066456949     A.U. after   12 cycles
 SCF Done:  E(RB+HF-LYP) =  -46.3066766324     A.U. after   10 cycles
 SCF Done:  E(RB+HF-LYP) =  -46.3066790278     A.U. after   10 cycles
 Optimization completed.
    -- Stationary point found.
 Normal termination of Gaussian 98.

 --------------------------------------------------
 #N Geom=AllCheck Guess=TCheck RB3LYP/CEP-121G Freq
 --------------------------------------------------

 1H tetrazole c CH-NH-N=N-N= casno=288948
 ----------------------------------------
 Redundant internal coordinates taken from checkpointfile:
 /wrk/rdj3/Gau-3013.chk
 Charge =  0 Multiplicity = 1

                         Standard orientation:
 ---------------------------------------------------------------------
 Center     Atomic     Atomic              Coordinates (Angstroms)
 Number     Number      Type              X           Y           Z
 ---------------------------------------------------------------------
    1          7             0       -0.763848   -0.985406    0.000000
    2          7             0       -1.173753    0.288303    0.000000
    3          7             0        0.000000    1.057211    0.000000
    4          1             0       -0.058139    2.066199    0.000000
    5          7             0        0.656691   -1.056683    0.000000
    6          6             0        1.086364    0.220051    0.000000
    7          1             0        2.117233    0.536472    0.000000
 ---------------------------------------------------------------------

 SCF Done:  E(RB+HF-LYP) =  -46.3066790278     A.U. after    1 cycles

  The electronic state is 1-A'.
 Alpha  occ. eigenvalues --   -1.16239  -0.96831  -0.92794  -0.69974  -0.68248
 Alpha  occ. eigenvalues --   -0.61418  -0.51543  -0.50201  -0.38623  -0.34635
 Alpha  occ. eigenvalues --   -0.32879  -0.32000  -0.30885
 Alpha virt. eigenvalues --   -0.05689  -0.01885   0.00375   0.04554   0.11500
 Alpha virt. eigenvalues --    0.12402   0.14972   0.19616   0.26872   0.27064
 Alpha virt. eigenvalues --    0.32570   0.35933   0.41767   0.44046   0.45032

  Exact polarizability:  41.909   0.977  41.381   0.017   0.006  18.827
 Approx polarizability:  73.356  -0.144  78.883   0.000   0.000  24.777

                     1                      2                      3
                    A"                     A"                     A"
 Frequencies --   638.5545               684.8771               730.1505
 Red. masses --     4.9900                10.0565                 1.1170
 Frc consts  --     1.1988                 2.7792                 0.3509
 IR Inten    --    14.9340                 0.2870               129.3319
 Raman Activ --     0.0000                 0.0000                 0.0000

                     4                      5                      6
                    A"                     A'                     A'
 Frequencies --   832.7022               872.3248               957.7977
 Red. masses --     1.3523                 7.6390                 5.1649
 Frc consts  --     0.5525                 3.4249                 2.7917
 IR Inten    --    28.9702                 6.9694                18.5811
 Raman Activ --     0.0000                 0.0000                 0.0000

                     7                      8                      9
                    A'                     A'                     A'
 Frequencies --   978.5712              1011.1233              1120.7751
 Red. masses --     6.8885                 5.8368                 1.9683
 Frc consts  --     3.8865                 3.5158                 1.4567
 IR Inten    --     7.3309                14.2827                16.4649
 Raman Activ --     0.0000                 0.0000                 0.0000

                    10                     11                     12
                    A'                     A'                     A'
 Frequencies --  1175.0672              1213.7026              1375.4328
 Red. masses --     5.5743                 2.7924                 2.9864
 Frc consts  --     4.5349                 2.4235                 3.3287
 IR Inten    --     9.9378                 1.2559                 3.9393
 Raman Activ --     0.0000                 0.0000                 0.0000

                    13                     14                     15
                    A'                     A'                     A'
 Frequencies --  1462.4212              3285.5645              3663.9433
 Red. masses --     2.0077                 1.1028                 1.0854
 Frc consts  --     2.5298                 7.0141                 8.5849
 IR Inten    --    31.7824                 1.8079                74.9085
 Raman Activ --     0.0000                 0.0000                 0.0000

 - Thermochemistry -
 -------------------
 Temperature   298.150 Kelvin.  Pressure   1.00000 Atm.
 Atom  1 has atomic number  7 and mass  14.00307

 Molecular mass:    70.02795 amu.
 Principal axes and moments of inertia in atomic units:
                           1         2         3
     EIGENVALUES --   181.76038 186.07391 367.83429
           X            0.98516   0.17165   0.00000
           Y           -0.17165   0.98516   0.00000
           Z            0.00000   0.00000   1.00000
 THIS MOLECULE IS AN ASYMMETRIC TOP.
 ROTATIONAL SYMMETRY NUMBER  1.
 ROTATIONAL TEMPERATURES (KELVIN)      0.47653     0.46548     0.23547
 ROTATIONAL CONSTANTS (GHZ)            9.92923     9.69906     4.90640
 Zero-point vibrational energy     119644.6 (Joules/Mol)
                                   28.59574 (Kcal/Mol)
 VIBRATIONAL TEMPERATURES:    918.73   985.38  1050.52  1198.07  1255.07
          (KELVIN)           1378.05  1407.94  1454.77  1612.54  1690.65
                             1746.24  1978.93  2104.09  4727.17  5271.57

 Zero-point correction=                           0.045570 (Hartree/Particle)
 Thermal correction to Energy=                    0.049082
 Thermal correction to Enthalpy=                  0.050026
 Thermal correction to Gibbs Free Energy=         0.019384
 Sum of electronic and zero-point Energies=            -46.261109
 Sum of electronic and thermal Energies=               -46.257597
 Sum of electronic and thermal Enthalpies=             -46.256653
 Sum of electronic and thermal Free Energies=          -46.287295

                     E (Thermal)             CV                S
                      KCAL/MOL        CAL/MOL-KELVIN    CAL/MOL-KELVIN
 TOTAL                   30.799             11.755             64.492
 ELECTRONIC               0.000              0.000              0.000
 TRANSLATIONAL            0.889              2.981             38.656
 ROTATIONAL               0.889              2.981             24.035
 VIBRATIONAL             29.022              5.793              1.801
                       Q            LOG10(Q)             LN(Q)
 TOTAL BOT       0.121362D-08         -8.915917        -20.529659
 TOTAL V=0       0.110862D+13         12.044782         27.734137
 VIB (BOT)       0.131961D-20        -20.879553        -48.076947
 VIB (V=0)       0.120544D+01          0.081147          0.186848
 ELECTRONIC      0.100000D+01          0.000000          0.000000
 TRANSLATIONAL   0.230339D+08          7.362368         16.952478
 ROTATIONAL      0.399271D+05          4.601268         10.594811
 ***** Axes restored to original set *****
 -------------------------------------------------------------------
 Center     Atomic                   Forces (Hartrees/Bohr)
 Number     Number              X              Y              Z
 -------------------------------------------------------------------
    1          7          -0.000100976    0.000239194    0.000000000
    2          7          -0.000497315   -0.000083962    0.000000000
    3          7           0.000294932   -0.000331194    0.000000000
    4          1           0.000002983    0.000037219    0.000000000
    5          7          -0.000041086    0.000014446    0.000000000
    6          6           0.000321510    0.000188994    0.000000000
    7          1           0.000019951   -0.000064697    0.000000000
 -------------------------------------------------------------------
 Cartesian Forces:  Max     0.000497315 RMS     0.000178007

 GradGradGradGradGradGradGradGradGradGradGradGradGradGradGradGradGradGrad
 Berny optimization.
 Internal  Forces:  Max     0.000441166 RMS     0.000125344
 Search for a local minimum.
 Step number   1 out of a maximum of  36
 All quantities printed in internal units (Hartrees-Bohrs-Radians)
 Second derivative matrix not updated -- analytic derivatives used.
     Eigenvalues ---    0.01118   0.02574   0.06855   0.07389   0.09782
     Eigenvalues ---    0.10764   0.16478   0.20082   0.30753   0.36488
     Eigenvalues ---    0.37915   0.42773   0.47768   0.52299   0.58902
     Eigenvalues --- 1000.000001000.000001000.000001000.000001000.00000
     Eigenvalues --- 1000.000001000.000001000.000001000.000001000.00000
     Eigenvalues --- 1000.00000
 Angle between quadratic step and forces=  32.21 degrees.
 Linear search not attempted -- first point.
 Iteration  1 RMS(Cart)=  0.00037976 RMS(Int)=  0.00000012
 Iteration  2 RMS(Cart)=  0.00000010 RMS(Int)=  0.00000001
 Variable       Old X    -DE/DX   Delta X   Delta X   Delta X     New X
                                 (Linear)    (Quad)   (Total)
    R1        2.52853  -0.00021   0.00000  -0.00076  -0.00076   2.52777
    R2        2.68781   0.00015   0.00000   0.00034   0.00034   2.68814
    R3        2.65163   0.00044   0.00000   0.00166   0.00166   2.65328
    R4        1.90987   0.00003   0.00000   0.00008   0.00008   1.90995
    R5        2.59177  -0.00014   0.00000  -0.00055  -0.00055   2.59121
    R6        2.54564   0.00015   0.00000   0.00050   0.00050   2.54614
    R7        2.03776   0.00004   0.00000   0.00010   0.00010   2.03787
    A1        1.93228  -0.00006   0.00000   0.00019   0.00019   1.93247
    A2        1.83938  -0.00003   0.00000  -0.00025  -0.00025   1.83914
    A3        2.09318  -0.00007   0.00000  -0.00046  -0.00046   2.09272
    A4        1.90509   0.00010   0.00000   0.00010   0.00010   1.90519
    A5        2.28491  -0.00003   0.00000   0.00037   0.00037   2.28528
    A6        1.84530   0.00017   0.00000   0.00015   0.00015   1.84545
    A7        1.90272  -0.00018   0.00000  -0.00019  -0.00019   1.90253
    A8        2.18722   0.00014   0.00000   0.00083   0.00083   2.18804
    A9        2.19325   0.00004   0.00000  -0.00064  -0.00064   2.19261
    D1        0.00000   0.00000   0.00000   0.00000   0.00000   0.00000
    D2        0.00000   0.00000   0.00000   0.00000   0.00000   0.00000
    D3        3.14159   0.00000   0.00000   0.00000   0.00000   3.14159
    D4        0.00000   0.00000   0.00000   0.00000   0.00000   0.00000
    D5        0.00000   0.00000   0.00000   0.00000   0.00000   0.00000
    D6        3.14159   0.00000   0.00000   0.00000   0.00000   3.14159
    D7        3.14159   0.00000   0.00000   0.00000   0.00000   3.14159
    D8        0.00000   0.00000   0.00000   0.00000   0.00000   0.00000
    D9        0.00000   0.00000   0.00000   0.00000   0.00000   0.00000
   D10        3.14159   0.00000   0.00000   0.00000   0.00000   3.14159
         Item               Value     Threshold  Converged?
 Maximum Force            0.000441     0.000450     YES
 RMS     Force            0.000125     0.000300     YES
 Maximum Displacement     0.001142     0.001800     YES
 RMS     Displacement     0.000380     0.001200     YES
 Predicted change in Energy=-6.404769D-07
 Optimization completed.
    -- Stationary point found.
                         ----------------------------
                         !   Optimized Parameters   !
                         ! (Angstroms and Degrees)  !
 ------------------------                            -------------------------
 ! Name  Definition              Value          Derivative Info.             !
 -----------------------------------------------------------------------------
 ! R1    R(1,2)                  1.338          -DE/DX =   -0.0002           !
 ! R2    R(1,5)                  1.4223         -DE/DX =    0.0001           !
 ! R3    R(2,3)                  1.4032         -DE/DX =    0.0004           !
 ! R4    R(3,4)                  1.0107         -DE/DX =    0.               !
 ! R5    R(3,6)                  1.3715         -DE/DX =   -0.0001           !
 ! R6    R(5,6)                  1.3471         -DE/DX =    0.0001           !
 ! R7    R(6,7)                  1.0783         -DE/DX =    0.               !
 ! A1    A(2,1,5)              110.7117         -DE/DX =   -0.0001           !
 ! A2    A(1,2,3)              105.3889         -DE/DX =    0.               !
 ! A3    A(2,3,4)              119.9304         -DE/DX =   -0.0001           !
 ! A4    A(2,3,6)              109.1537         -DE/DX =    0.0001           !
 ! A5    A(4,3,6)              130.9159         -DE/DX =    0.               !
 ! A6    A(1,5,6)              105.7277         -DE/DX =    0.0002           !
 ! A7    A(3,6,5)              109.0179         -DE/DX =   -0.0002           !
 ! A8    A(3,6,7)              125.3182         -DE/DX =    0.0001           !
 ! A9    A(5,6,7)              125.6639         -DE/DX =    0.               !
 ! D1    D(5,1,2,3)              0.             -DE/DX =    0.               !
 ! D2    D(2,1,5,6)              0.             -DE/DX =    0.               !
 ! D3    D(1,2,3,4)            180.             -DE/DX =    0.               !
 ! D4    D(1,2,3,6)              0.             -DE/DX =    0.               !
 ! D5    D(2,3,6,5)              0.             -DE/DX =    0.               !
 ! D6    D(2,3,6,7)            180.             -DE/DX =    0.               !
 ! D7    D(4,3,6,5)            180.             -DE/DX =    0.               !
 ! D8    D(4,3,6,7)              0.             -DE/DX =    0.               !
 ! D9    D(1,5,6,3)              0.             -DE/DX =    0.               !
 ! D10   D(1,5,6,7)            180.             -DE/DX =    0.               !
 -----------------------------------------------------------------------------
 GradGradGradGradGradGradGradGradGradGradGradGradGradGradGradGradGradGrad

 1\1\GINC-QCHEM6\Freq\RB3LYP\CEP-121G\C1H2N4\RDJ3\06-Oct-2000\0\\#N GEO
 M=ALLCHECK GUESS=TCHECK RB3LYP/CEP-121G FREQ\\1H tetrazole c CH-NH-N=N
 -N= casno=288948\\0,1\N,-1.212672616,-0.2896762544,0.\N,-0.7343694593,
 0.9599567763,0.\N,0.6622197804,0.824111199,0.\H,1.2489138796,1.6470500
 027,0.\N,-0.1499891115,-1.2350405623,0.\C,0.9846728002,-0.5089481594,0
 .\H,1.9864519515,-0.908013158,0.\\Version=x86-Linux-G98RevA.4\State=1-
 A'\HF=-46.306679\RMSD=2.513e-10\RMSF=1.780e-04\Dipole=2.1257518,0.9019
 336,0.\DipoleDeriv=0.0855332,-0.1224493,0.0002036,-0.1825811,0.0239343
 ,0.0007802,-0.0008245,-0.0001258,-0.1728447,0.3132203,0.2017814,-0.000
 1882,0.180633,-0.2806329,-0.0006235,0.0004081,0.0000468,-0.0870697,-0.
 4194074,-0.2676811,-0.0005183,-0.1999235,-0.2704677,0.0002469,0.000715
 5,-0.0001761,-0.1994125,0.2122156,0.022856,0.0002407,0.0128407,0.23879
 55,0.00035,-0.0000846,0.0000193,0.3959909,-0.4147436,0.147538,-0.00032
 18,-0.0061036,-0.2277036,-0.0000422,-0.0008946,0.0002772,-0.1915679,0.
 1645715,0.0021988,0.000235,0.1828157,0.378802,-0.0005781,0.0005603,-0.
 000074,0.0457996,0.0586106,0.0157558,0.0003491,0.0123188,0.1372724,-0.
 0001333,0.0001199,0.0000325,0.2091044\Polar=42.6565433,-0.0472656,40.6
 341441,0.0172242,-0.0057861,18.8268501\PG=CS [SG(C1H2N4)]\NImag=0\\0.4
 6105722,0.08519253,0.36943744,0.00001184,0.00001075,0.10619251,-0.1077
 4229,-0.09049625,-0.00000784,0.34669167,-0.02423620,-0.25005024,-0.000
 01706,-0.03664012,0.50900630,-0.00000348,-0.00000150,-0.08168466,-0.00
 000788,0.00000434,0.09799777,-0.10666767,-0.09021060,-0.00002733,-0.16
 533730,0.01059920,0.00002145,0.59803683,-0.02864629,-0.05640532,0.0000
 1574,0.04603565,-0.10885900,-0.00001085,0.21771379,0.87579431,-0.00001
 053,-0.00003000,0.02053226,0.00001032,0.00002480,-0.06272063,0.0000164
 3,-0.00000710,0.10373333,-0.01033414,-0.00055237,0.00001597,-0.0031912
 0,-0.03291235,-0.00000733,-0.20047178,-0.18541563,-0.00000697,0.200421
 76,0.00940226,0.00150661,0.00002425,0.00700808,0.01191301,-0.00000985,
 -0.19204546,-0.34085804,-0.00001214,0.19635039,0.33525384,0.00000034,-
 0.00000068,0.00726067,0.00000554,-0.00000013,-0.00859413,-0.00000558,0
 .00000307,-0.01721368,0.00000010,0.00000013,0.01822102,-0.12172291,0.0
 4302610,-0.00000608,-0.00954675,0.07660672,0.00000449,0.00220193,-0.10
 221555,0.00000899,-0.00113397,-0.00035571,-0.00000148,0.40476915,-0.00
 620821,-0.08646892,0.00001538,-0.01595211,-0.10826221,-0.00000012,-0.0
 0311959,-0.08483358,-0.00000458,0.00904381,-0.00457270,-0.00000056,0.1
 0338811,0.44367867,0.00000994,0.00004122,-0.07848398,-0.00000725,-0.00
 003200,0.02999641,-0.00003381,0.00001179,0.01979691,0.00001589,0.00002
 125,0.00751502,-0.00001648,-0.00001033,0.09837733,-0.11329772,0.053522
 29,-0.00000752,-0.06129274,0.01116338,-0.00000204,-0.13434522,0.059600
 09,-0.00000707,0.01498810,-0.02131986,0.00000201,-0.26312648,-0.099438
 27,0.00001400,0.88302159,-0.02988194,0.02339800,-0.00003994,0.09222071
 ,-0.04855164,0.00001561,0.02520734,-0.27875945,0.00002409,0.01387375,-
 0.00290107,-0.00000209,-0.10152152,-0.17138405,-0.00002535,-0.11178282
 ,0.57236617,-0.00000601,-0.00002115,0.01759717,0.00000823,0.00001823,0
 .01973945,0.00002169,-0.00000993,-0.06175615,-0.00001390,-0.00001836,-
 0.00660113,0.00001007,0.00000282,-0.07233029,-0.00000307,0.00002212,0.
 13111612,-0.00129249,-0.00048171,0.00002096,0.00041862,-0.00458063,-0.
 00000521,0.00658320,-0.00707206,-0.00001118,-0.00027877,0.00096031,-0.
 00000093,-0.01144098,0.01228626,0.00001771,-0.32594755,0.11188448,-0.0
 0001702,0.33195797,-0.00562216,-0.00141756,-0.00000912,-0.00217596,-0.
 00519623,0.00000238,0.03185533,-0.00607891,0.00000493,-0.00038760,-0.0
 0034164,0.00000025,-0.01892815,0.01184280,-0.00000658,0.10825518,-0.09
 416795,0.00000627,-0.11299665,0.09535950,-0.00000210,0.00000136,0.0085
 8603,-0.00000113,0.00000182,0.00526580,0.00000714,-0.00000273,-0.00237
 204,-0.00000375,-0.00000529,-0.00058776,0.00000047,-0.00000260,-0.0048
 7139,0.00000369,0.00000556,-0.02776516,-0.00000432,0.00000187,0.021744
 52\\0.00010098,-0.00023919,0.,0.00049731,0.00008396,0.,-0.00029493,0.0
 0033119,0.,-0.00000298,-0.00003722,0.,0.00004109,-0.00001445,0.,-0.000
 32151,-0.00018899,0.,-0.00001995,0.00006470,0.\\\@

 THE FIRST AND LAST THING REQUIRED OF GENIUS IS THE LOVE OF TRUTH.

                          -- GOETHE
 Job cpu time:  0 days  0 hours 12 minutes 44.7 seconds.
 File lengths (MBytes):  RWF=   16 Int=    0 D2E=    0 Chk=    8 Scr=    1
 Normal termination of Gaussian 98.
