 Gaussian 98, Revision A.6,
 Gaussian 98:  IBM-RS6000-G98RevA.6 19-Oct-1998

 -------------------
 #B3LYP/SDD opt freq
 -------------------

 ----------------------------------------
 1H tetrazole c CH-NH-N=N-N= casno=288948
 ----------------------------------------
 Symbolic Z-matrix:
 Charge =  0 Multiplicity = 1

 SCF Done:  E(RB+HF-LYP) =  -258.164645734     A.U. after   17 cycles
 SCF Done:  E(RB+HF-LYP) =  -258.183300623     A.U. after   14 cycles
 SCF Done:  E(RB+HF-LYP) =  -258.183800117     A.U. after   13 cycles
 SCF Done:  E(RB+HF-LYP) =  -258.184154106     A.U. after   13 cycles
 SCF Done:  E(RB+HF-LYP) =  -258.184173634     A.U. after   10 cycles
 SCF Done:  E(RB+HF-LYP) =  -258.184175895     A.U. after    9 cycles
 Optimization completed.
    -- Stationary point found.
 Normal termination of Gaussian 98.

 ---------------------------------------------
 #N Geom=AllCheck Guess=TCheck RB3LYP/SDD Freq
 ---------------------------------------------

 1H tetrazole c CH-NH-N=N-N= casno=288948
 ----------------------------------------
 Redundant internal coordinates taken from checkpointfile:
 /wrk/rdj3/Gau-17428.chk
 Charge =  0 Multiplicity = 1

                         Standard orientation:
 ---------------------------------------------------------------------
 Center     Atomic     Atomic              Coordinates (Angstroms)
 Number     Number      Type              X           Y           Z
 ---------------------------------------------------------------------
    1          7             0       -0.738711   -0.962463    0.000000
    2          7             0       -1.157744    0.300686    0.000000
    3          7             0        0.000000    1.078863    0.000000
    4          1             0       -0.078669    2.086723    0.000000
    5          7             0        0.670604   -1.018373    0.000000
    6          6             0        1.090308    0.257030    0.000000
    7          1             0        2.117774    0.580108    0.000000
 ---------------------------------------------------------------------

 SCF Done:  E(RB+HF-LYP) =  -258.184175895     A.U. after    1 cycles

  The electronic state is 1-A'.
 Alpha  occ. eigenvalues --  -14.45502 -14.43628 -14.41713 -14.38868 -10.30494
 Alpha  occ. eigenvalues --   -1.16131  -0.96472  -0.92198  -0.69728  -0.68088
 Alpha  occ. eigenvalues --   -0.61335  -0.51509  -0.50407  -0.38326  -0.34751
 Alpha  occ. eigenvalues --   -0.32918  -0.31674  -0.30428
 Alpha virt. eigenvalues --   -0.05602  -0.01815   0.05146   0.09741   0.12950
 Alpha virt. eigenvalues --    0.14178   0.20549   0.27545   0.28335   0.30609
 Alpha virt. eigenvalues --    0.35179   0.44157   0.45093   0.46429   0.47876

  Exact polarizability:  39.875   0.868  39.570  -0.010  -0.031  15.516
 Approx polarizability:  70.264  -0.307  75.916   0.000   0.000  19.926

                     1                      2                      3
                    A"                     ?A                     A"
 Frequencies --   655.1521               702.7517               745.9257
 Red. masses --     4.0554                10.5238                 1.1241
 Frc consts  --     1.0256                 3.0622                 0.3685
 IR Inten    --    10.3872                 0.6548               150.0467
 Raman Activ --     0.0000                 0.0000                 0.0000

                     4                      5                      6
                    A"                     ?A                     A'
 Frequencies --   857.5924               883.4294               961.3721
 Red. masses --     1.4236                 7.2713                 5.6875
 Frc consts  --     0.6169                 3.3435                 3.0971
 IR Inten    --    20.0702                 8.0837                17.9755
 Raman Activ --     0.0000                 0.0000                 0.0000

                     7                      8                      9
                    A'                     A'                     A'
 Frequencies --   992.2944              1023.0536              1134.6794
 Red. masses --     7.1960                 5.9368                 2.1002
 Frc consts  --     4.1747                 3.6610                 1.5931
 IR Inten    --     7.0242                13.2874                15.1076
 Raman Activ --     0.0000                 0.0000                 0.0000

                    10                     11                     12
                    A'                     A'                     A'
 Frequencies --  1181.4406              1230.4739              1386.2510
 Red. masses --     4.2029                 2.7877                 2.8968
 Frc consts  --     3.4564                 2.4868                 3.2799
 IR Inten    --    12.3376                 1.6023                 4.4499
 Raman Activ --     0.0000                 0.0000                 0.0000

                    13                     14                     15
                    A'                     A'                     A'
 Frequencies --  1467.3691              3340.0356              3697.8525
 Red. masses --     2.0854                 1.1022                 1.0851
 Frc consts  --     2.6456                 7.2443                 8.7424
 IR Inten    --    34.3849                 3.2753               103.7879
 Raman Activ --     0.0000                 0.0000                 0.0000

 - Thermochemistry -
 -------------------
 Temperature   298.150 Kelvin.  Pressure   1.00000 Atm.
 Atom  1 has atomic number  7 and mass  14.00307

 Molecular mass:    70.02795 amu.
 Principal axes and moments of inertia in atomic units:
                           1         2         3
     EIGENVALUES --   180.20878 183.75405 363.96283
           X            0.99219   0.12474   0.00000
           Y           -0.12474   0.99219   0.00000
           Z            0.00000   0.00000   1.00000
 THIS MOLECULE IS AN ASYMMETRIC TOP.
 ROTATIONAL SYMMETRY NUMBER  1.
 ROTATIONAL TEMPERATURES (KELVIN)      0.48063     0.47136     0.23797
 ROTATIONAL CONSTANTS (GHZ)           10.01472     9.82150     4.95859
 Zero-point vibrational energy     121179.8 (Joules/Mol)
                                   28.96266 (Kcal/Mol)
 VIBRATIONAL TEMPERATURES:    942.61  1011.10  1073.21  1233.88  1271.05
          (KELVIN)           1383.19  1427.68  1471.94  1632.54  1699.82
                             1770.37  1994.49  2111.20  4805.54  5320.35

 Zero-point correction=                           0.046155 (Hartree/Particle)
 Thermal correction to Energy=                    0.049630
 Thermal correction to Enthalpy=                  0.050574
 Thermal correction to Gibbs Free Energy=         0.019997
 Sum of electronic and zero-point Energies=           -258.138021
 Sum of electronic and thermal Energies=              -258.134546
 Sum of electronic and thermal Enthalpies=            -258.133602
 Sum of electronic and thermal Free Energies=         -258.164179

                     E (Thermal)             CV                S
                      KCAL/MOL        CAL/MOL-KELVIN    CAL/MOL-KELVIN
 TOTAL                   31.143             11.540             64.356
 ELECTRONIC               0.000              0.000              0.000
 TRANSLATIONAL            0.889              2.981             38.656
 ROTATIONAL               0.889              2.981             24.004
 VIBRATIONAL             29.366              5.578              1.696
                       Q            LOG10(Q)             LN(Q)
 TOTAL BOT       0.634237D-09         -9.197748        -21.178599
 TOTAL V=0       0.107623D+13         12.031905         27.704486
 VIB (BOT)       0.700648D-21        -21.154500        -48.710037
 VIB (V=0)       0.118892D+01          0.075153          0.173047
 ELECTRONIC      0.100000D+01          0.000000          0.000000
 TRANSLATIONAL   0.230339D+08          7.362368         16.952478
 ROTATIONAL      0.392993D+05          4.594384         10.578961
 ***** Axes restored to original set *****
 -------------------------------------------------------------------
 Center     Atomic                   Forces (Hartrees/Bohr)
 Number     Number              X              Y              Z
 -------------------------------------------------------------------
    1          7          -0.000022164    0.000012521    0.000000000
    2          7          -0.000464670    0.000041688    0.000000000
    3          7           0.000268817   -0.000233670    0.000000000
    4          1           0.000008268    0.000051925    0.000000000
    5          7          -0.000266132    0.000065670    0.000000000
    6          6           0.000462527    0.000119338    0.000000000
    7          1           0.000013353   -0.000057472    0.000000000
 -------------------------------------------------------------------
 Cartesian Forces:  Max     0.000464670 RMS     0.000176571

 GradGradGradGradGradGradGradGradGradGradGradGradGradGradGradGradGradGrad
 Berny optimization.
 Internal  Forces:  Max     0.000441792 RMS     0.000122449
 Search for a local minimum.
 Step number   1 out of a maximum of  36
 All quantities printed in internal units (Hartrees-Bohrs-Radians)
 Second derivative matrix not updated -- analytic derivatives used.
     Eigenvalues ---    0.01187   0.02633   0.07178   0.07683   0.09943
     Eigenvalues ---    0.10894   0.16830   0.20154   0.31357   0.36837
     Eigenvalues ---    0.39128   0.43564   0.48650   0.53456   0.60168
     Eigenvalues --- 1000.000001000.000001000.000001000.000001000.00000
     Eigenvalues --- 1000.000001000.000001000.000001000.000001000.00000
     Eigenvalues --- 1000.00000
 Angle between quadratic step and forces=  32.10 degrees.
 Linear search not attempted -- first point.
 Iteration  1 RMS(Cart)=  0.00039931 RMS(Int)=  0.00000013
 Iteration  2 RMS(Cart)=  0.00000012 RMS(Int)=  0.00000000
 Variable       Old X    -DE/DX   Delta X   Delta X   Delta X     New X
                                 (Linear)    (Quad)   (Total)
    R1        2.51492  -0.00008   0.00000  -0.00024  -0.00024   2.51468
    R2        2.66531   0.00000   0.00000  -0.00055  -0.00055   2.66476
    R3        2.63610   0.00044   0.00000   0.00158   0.00158   2.63769
    R4        1.91037   0.00005   0.00000   0.00011   0.00011   1.91048
    R5        2.58014  -0.00003   0.00000  -0.00035  -0.00035   2.57979
    R6        2.53731   0.00027   0.00000   0.00081   0.00081   2.53812
    R7        2.03536   0.00003   0.00000   0.00006   0.00006   2.03542
    A1        1.93076  -0.00002   0.00000   0.00031   0.00031   1.93107
    A2        1.84227  -0.00004   0.00000  -0.00041  -0.00041   1.84186
    A3        2.08469  -0.00006   0.00000  -0.00053  -0.00053   2.08416
    A4        1.90390   0.00008   0.00000   0.00015   0.00015   1.90405
    A5        2.29460  -0.00001   0.00000   0.00037   0.00037   2.29497
    A6        1.84906   0.00019   0.00000   0.00038   0.00038   1.84944
    A7        1.89879  -0.00020   0.00000  -0.00043  -0.00043   1.89836
    A8        2.19104   0.00015   0.00000   0.00089   0.00089   2.19193
    A9        2.19336   0.00005   0.00000  -0.00046  -0.00046   2.19290
    D1        0.00000   0.00000   0.00000   0.00000   0.00000   0.00000
    D2        0.00000   0.00000   0.00000   0.00000   0.00000   0.00000
    D3        3.14159   0.00000   0.00000   0.00000   0.00000   3.14159
    D4        0.00000   0.00000   0.00000   0.00000   0.00000   0.00000
    D5        0.00000   0.00000   0.00000   0.00000   0.00000   0.00000
    D6        3.14159   0.00000   0.00000   0.00000   0.00000   3.14159
    D7        3.14159   0.00000   0.00000   0.00000   0.00000   3.14159
    D8        0.00000   0.00000   0.00000   0.00000   0.00000   0.00000
    D9        0.00000   0.00000   0.00000   0.00000   0.00000   0.00000
   D10        3.14159   0.00000   0.00000   0.00000   0.00000   3.14159
         Item               Value     Threshold  Converged?
 Maximum Force            0.000442     0.000450     YES
 RMS     Force            0.000122     0.000300     YES
 Maximum Displacement     0.001127     0.001800     YES
 RMS     Displacement     0.000399     0.001200     YES
 Predicted change in Energy=-6.319625D-07
 Optimization completed.
    -- Stationary point found.
                         ----------------------------
                         !   Optimized Parameters   !
                         ! (Angstroms and Degrees)  !
 ------------------------                            -------------------------
 ! Name  Definition              Value          Derivative Info.             !
 -----------------------------------------------------------------------------
 ! R1    R(1,2)                  1.3308         -DE/DX =   -0.0001           !
 ! R2    R(1,5)                  1.4104         -DE/DX =    0.               !
 ! R3    R(2,3)                  1.395          -DE/DX =    0.0004           !
 ! R4    R(3,4)                  1.0109         -DE/DX =    0.               !
 ! R5    R(3,6)                  1.3654         -DE/DX =    0.               !
 ! R6    R(5,6)                  1.3427         -DE/DX =    0.0003           !
 ! R7    R(6,7)                  1.0771         -DE/DX =    0.               !
 ! A1    A(2,1,5)              110.6244         -DE/DX =    0.               !
 ! A2    A(1,2,3)              105.5544         -DE/DX =    0.               !
 ! A3    A(2,3,4)              119.4438         -DE/DX =   -0.0001           !
 ! A4    A(2,3,6)              109.0854         -DE/DX =    0.0001           !
 ! A5    A(4,3,6)              131.4708         -DE/DX =    0.               !
 ! A6    A(1,5,6)              105.9433         -DE/DX =    0.0002           !
 ! A7    A(3,6,5)              108.7925         -DE/DX =   -0.0002           !
 ! A8    A(3,6,7)              125.5371         -DE/DX =    0.0001           !
 ! A9    A(5,6,7)              125.6705         -DE/DX =    0.0001           !
 ! D1    D(5,1,2,3)              0.             -DE/DX =    0.               !
 ! D2    D(2,1,5,6)              0.             -DE/DX =    0.               !
 ! D3    D(1,2,3,4)            180.             -DE/DX =    0.               !
 ! D4    D(1,2,3,6)              0.             -DE/DX =    0.               !
 ! D5    D(2,3,6,5)              0.             -DE/DX =    0.               !
 ! D6    D(2,3,6,7)            180.             -DE/DX =    0.               !
 ! D7    D(4,3,6,5)            180.             -DE/DX =    0.               !
 ! D8    D(4,3,6,7)              0.             -DE/DX =    0.               !
 ! D9    D(1,5,6,3)              0.             -DE/DX =    0.               !
 ! D10   D(1,5,6,7)            180.             -DE/DX =    0.               !
 -----------------------------------------------------------------------------
 GradGradGradGradGradGradGradGradGradGradGradGradGradGradGradGradGradGrad

 1\1\GINC-INDIUM\Freq\RB3LYP\SDD\C1H2N4\RDJ3\02-Jan-2001\0\\#N GEOM=ALL
 CHECK GUESS=TCHECK RB3LYP/SDD FREQ\\1H tetrazole c CH-NH-N=N-N= casno=
 288948\\0,1\N,-1.1817588313,-0.2747275103,0.\N,-0.7036766024,0.9672760
 528,0.\N,0.6848701127,0.8336050972,0.\H,1.2638822201,1.6622892301,0.\N
 ,-0.1283147577,-1.2125712141,0.\C,1.0056133152,-0.4935366213,0.\H,2.00
 45984395,-0.896146481,0.\\Version=IBM-RS6000-G98RevA.6\State=1-A'\HF=-
 258.1841759\RMSD=6.837e-09\RMSF=1.766e-04\Dipole=2.1294547,0.9063338,0
 .\DipoleDeriv=0.0852178,-0.1202773,-0.0016757,-0.1773724,0.0326006,0.0
 002336,0.0027681,0.0015019,-0.1699281,0.3203647,0.1912865,0.0014833,0.
 170623,-0.2840806,0.0009787,-0.0006792,0.0000558,-0.0919454,-0.4408658
 ,-0.2708274,-0.0000295,-0.2005804,-0.3066825,-0.0003773,-0.0010562,-0.
 000925,-0.1994749,0.2392303,0.0354394,-0.0007399,0.039009,0.2713199,-0
 .0008347,0.0001703,0.0000686,0.4027323,-0.4029328,0.1414406,0.0011987,
 -0.0219017,-0.2280356,-0.000986,-0.0012369,0.0000032,-0.1869383,0.1312
 835,0.0093621,-0.0001638,0.1853427,0.366986,0.0009612,-0.0000529,-0.00
 0576,0.0293759,0.0677025,0.0135759,-0.0000732,0.0048796,0.1478923,0.00
 00245,0.0000867,-0.0001285,0.2161785\Polar=40.6035709,0.0188782,38.840
 7798,-0.0277006,-0.0172997,15.5163606\PG=CS [SG(C1H2N4)]\NImag=0\\0.46
 867727,0.08524674,0.37346723,-0.00016045,0.00004821,0.11170573,-0.1066
 4935,-0.09429377,0.00010424,0.34739022,-0.02257127,-0.24904969,0.00008
 898,-0.03558536,0.51468051,0.00002363,0.00000179,-0.08605033,-0.000009
 30,-0.00001835,0.10335533,-0.11177098,-0.09061238,0.00001587,-0.159735
 90,0.00600763,-0.00002029,0.59494633,-0.02880845,-0.05903503,-0.000074
 47,0.04672083,-0.10787458,0.00002315,0.22287427,0.89659653,0.00007598,
 -0.00002376,0.02237471,-0.00006353,-0.00003890,-0.06749354,0.00001426,
 0.00001525,0.11295683,-0.00954724,-0.00047411,-0.00005701,-0.00577180,
 -0.03302786,0.00001274,-0.19719495,-0.18942594,0.00002567,0.19966959,0
 .00868494,0.00192626,-0.00006548,0.00700344,0.01145351,0.00001519,-0.1
 9386788,-0.34988419,0.00002806,0.19874235,0.34571979,-0.00000978,0.000
 00028,0.00715472,0.00000837,0.00000614,-0.00825011,0.00000004,-0.00000
 246,-0.01907526,-0.00000440,-0.00000475,0.01898766,-0.12338013,0.04745
 525,0.00010328,-0.01168532,0.07748121,-0.00002149,0.00114465,-0.103586
 48,-0.00005001,-0.00134583,0.00005462,0.00000886,0.41914656,-0.0081584
 3,-0.08705178,-0.00013818,-0.01415280,-0.11347430,0.00001334,-0.004045
 88,-0.08596235,0.00006222,0.00876146,-0.00488434,-0.00000444,0.1054256
 3,0.45156743,0.00005233,-0.00000504,-0.08281655,-0.00001880,-0.0000370
 2,0.03168468,-0.00002733,0.00004506,0.02141993,0.00002035,0.00002317,0
 .00755726,-0.00004874,0.00003860,0.10378221,-0.11593672,0.05314950,0.0
 0002882,-0.06408163,0.01208018,-0.00000068,-0.13399951,0.05928470,-0.0
 0000300,0.01469553,-0.02148350,-0.00000254,-0.27130837,-0.09952145,-0.
 00000431,0.90514978,-0.02888342,0.02115722,0.00012887,0.09250975,-0.05
 056962,-0.00003046,0.02744896,-0.28747374,-0.00004150,0.01566799,-0.00
 398293,0.00000510,-0.10752215,-0.17243629,-0.00005542,-0.11692958,0.59
 163122,0.00001817,-0.00001671,0.01907063,-0.00002085,-0.00000298,0.021
 64743,0.00001384,-0.00000485,-0.06913273,0.00000411,0.00000520,-0.0055
 1238,0.00000282,0.00002465,-0.07739441,-0.00001246,-0.00000763,0.14137
 975,-0.00139285,-0.00047124,-0.00003475,0.00053380,-0.00438452,0.00001
 538,0.00661036,-0.00705894,0.00000062,-0.00050531,0.00086603,-0.000000
 54,-0.01257158,0.01169146,0.00002649,-0.33451911,0.11770847,-0.0000056
 3,0.34184470,-0.00551012,-0.00141421,0.00001208,-0.00220210,-0.0051658
 4,-0.00000467,0.03219527,-0.00636663,-0.00000138,-0.00024389,-0.000348
 10,0.00000013,-0.01930808,0.01224162,-0.00000934,0.11342017,-0.0983258
 6,0.00000231,-0.11835126,0.09937902,0.00000013,-0.00000477,0.00856109,
 -0.00000012,0.00000212,0.00510654,0.00000360,-0.00000167,-0.00104994,-
 0.00000147,-0.00000140,-0.00086188,0.00000526,0.00000382,-0.00423312,-
 0.00000583,0.00000104,-0.03005830,-0.00000157,0.00000086,0.02253560\\0
 .00002216,-0.00001252,0.,0.00046467,-0.00004169,0.,-0.00026882,0.00023
 367,0.,-0.00000827,-0.00005192,0.,0.00026613,-0.00006567,0.,-0.0004625
 3,-0.00011934,0.,-0.00001335,0.00005747,0.\\\@

 IF THERE IS ONE WAY BETTER THAN ANOTHER IT IS THE WAY OF NATURE.

                          -- ARISTOTLE
 Job cpu time:  0 days  0 hours  2 minutes 23.2 seconds.
 File lengths (MBytes):  RWF=   12 Int=    0 D2E=    0 Chk=    8 Scr=    1
 Normal termination of Gaussian 98.
