 Gaussian 98, Revision A.6,
 Gaussian 98:  IBM-RS6000-G98RevA.6 19-Oct-1998

 -----------------------
 #B3LYP/LANL2DZ opt freq
 -----------------------

 ----------------------------------------
 1H tetrazole c CH-NH-N=N-N= casno=288948
 ----------------------------------------
 Symbolic Z-matrix:
 Charge =  0 Multiplicity = 1

 SCF Done:  E(RB+HF-LYP) =  -258.163752812     A.U. after   17 cycles
 SCF Done:  E(RB+HF-LYP) =  -258.182302487     A.U. after   14 cycles
 SCF Done:  E(RB+HF-LYP) =  -258.182798352     A.U. after   13 cycles
 SCF Done:  E(RB+HF-LYP) =  -258.183149975     A.U. after   13 cycles
 SCF Done:  E(RB+HF-LYP) =  -258.183169457     A.U. after   10 cycles
 SCF Done:  E(RB+HF-LYP) =  -258.183171717     A.U. after    9 cycles
 Optimization completed.
    -- Stationary point found.
 Normal termination of Gaussian 98.

 -------------------------------------------------
 #N Geom=AllCheck Guess=TCheck RB3LYP/LANL2DZ Freq
 -------------------------------------------------

 1H tetrazole c CH-NH-N=N-N= casno=288948
 ----------------------------------------
 Redundant internal coordinates taken from checkpointfile:
 /wrk/rdj3/Gau-15392.chk
 Charge =  0 Multiplicity = 1

                         Standard orientation:
 ---------------------------------------------------------------------
 Center     Atomic     Atomic              Coordinates (Angstroms)
 Number     Number      Type              X           Y           Z
 ---------------------------------------------------------------------
    1          7             0       -0.738541   -0.962325    0.000000
    2          7             0       -1.157578    0.300657    0.000000
    3          7             0        0.000000    1.078775    0.000000
    4          1             0       -0.078576    2.086593    0.000000
    5          7             0        0.670421   -1.018288    0.000000
    6          6             0        1.090144    0.256955    0.000000
    7          1             0        2.117601    0.579944    0.000000
 ---------------------------------------------------------------------

 SCF Done:  E(RB+HF-LYP) =  -258.183171717     A.U. after    1 cycles

  The electronic state is 1-A'.
 Alpha  occ. eigenvalues --  -14.45710 -14.43948 -14.42036 -14.39139 -10.30800
 Alpha  occ. eigenvalues --   -1.16184  -0.96515  -0.92240  -0.69764  -0.68128
 Alpha  occ. eigenvalues --   -0.61379  -0.51555  -0.50443  -0.38358  -0.34785
 Alpha  occ. eigenvalues --   -0.32952  -0.31698  -0.30447
 Alpha virt. eigenvalues --   -0.05633  -0.01842   0.05138   0.09736   0.12968
 Alpha virt. eigenvalues --    0.14183   0.20545   0.27523   0.28329   0.30672
 Alpha virt. eigenvalues --    0.35296   0.44841   0.45164   0.46415   0.48506

  Exact polarizability:  39.795   0.866  39.500  -0.016  -0.040  15.345
 Approx polarizability:  70.170  -0.319  75.827   0.000   0.000  19.657

                     1                      2                      3
                    A"                     ?A                     A"
 Frequencies --   655.5226               702.7770               746.5702
 Red. masses --     4.0358                10.5480                 1.1244
 Frc consts  --     1.0218                 3.0694                 0.3692
 IR Inten    --    10.2405                 0.6778               151.4349
 Raman Activ --     0.0000                 0.0000                 0.0000

                     4                      5                      6
                    A"                     ?A                     A'
 Frequencies --   857.4273               884.3124               962.0355
 Red. masses --     1.4252                 7.2567                 5.7087
 Frc consts  --     0.6173                 3.3435                 3.1129
 IR Inten    --    20.2743                 8.1927                18.0932
 Raman Activ --     0.0000                 0.0000                 0.0000

                     7                      8                      9
                    A'                     A'                     A'
 Frequencies --   992.7918              1023.7444              1134.9887
 Red. masses --     7.2243                 5.9353                 2.1113
 Frc consts  --     4.1953                 3.6650                 1.6025
 IR Inten    --     6.8568                13.5148                15.1975
 Raman Activ --     0.0000                 0.0000                 0.0000

                    10                     11                     12
                    A'                     A'                     A'
 Frequencies --  1181.4418              1230.8749              1386.1703
 Red. masses --     4.1594                 2.7933                 2.8954
 Frc consts  --     3.4206                 2.4934                 3.2778
 IR Inten    --    12.4606                 1.6347                 4.3156
 Raman Activ --     0.0000                 0.0000                 0.0000

                    13                     14                     15
                    A'                     A'                     A'
 Frequencies --  1467.4713              3339.2006              3698.4052
 Red. masses --     2.0789                 1.1022                 1.0852
 Frc consts  --     2.6377                 7.2409                 8.7454
 IR Inten    --    34.1979                 3.5084               104.8419
 Raman Activ --     0.0000                 0.0000                 0.0000

 - Thermochemistry -
 -------------------
 Temperature   298.150 Kelvin.  Pressure   1.00000 Atm.
 Atom  1 has atomic number  7 and mass  14.00307

 Molecular mass:    70.02795 amu.
 Principal axes and moments of inertia in atomic units:
                           1         2         3
     EIGENVALUES --   180.17121 183.69310 363.86432
           X            0.99197   0.12647   0.00000
           Y           -0.12647   0.99197   0.00000
           Z            0.00000   0.00000   1.00000
 THIS MOLECULE IS AN ASYMMETRIC TOP.
 ROTATIONAL SYMMETRY NUMBER  1.
 ROTATIONAL TEMPERATURES (KELVIN)      0.48073     0.47151     0.23804
 ROTATIONAL CONSTANTS (GHZ)           10.01681     9.82476     4.95993
 Zero-point vibrational energy     121204.1 (Joules/Mol)
                                   28.96847 (Kcal/Mol)
 VIBRATIONAL TEMPERATURES:    943.15  1011.13  1074.14  1233.64  1272.32
          (KELVIN)           1384.15  1428.40  1472.93  1632.99  1699.82
                             1770.94  1994.38  2111.35  4804.34  5321.15

 Zero-point correction=                           0.046164 (Hartree/Particle)
 Thermal correction to Energy=                    0.049638
 Thermal correction to Enthalpy=                  0.050582
 Thermal correction to Gibbs Free Energy=         0.020007
 Sum of electronic and zero-point Energies=           -258.137008
 Sum of electronic and thermal Energies=              -258.133533
 Sum of electronic and thermal Enthalpies=            -258.132589
 Sum of electronic and thermal Free Energies=         -258.163165

                     E (Thermal)             CV                S
                      KCAL/MOL        CAL/MOL-KELVIN    CAL/MOL-KELVIN
 TOTAL                   31.149             11.535             64.353
 ELECTRONIC               0.000              0.000              0.000
 TRANSLATIONAL            0.889              2.981             38.656
 ROTATIONAL               0.889              2.981             24.003
 VIBRATIONAL             29.371              5.573              1.694
                       Q            LOG10(Q)             LN(Q)
 TOTAL BOT       0.627607D-09         -9.202312        -21.189107
 TOTAL V=0       0.107547D+13         12.031597         27.703775
 VIB (BOT)       0.693605D-21        -21.158888        -48.720140
 VIB (V=0)       0.118856D+01          0.075021          0.172742
 ELECTRONIC      0.100000D+01          0.000000          0.000000
 TRANSLATIONAL   0.230339D+08          7.362368         16.952478
 ROTATIONAL      0.392833D+05          4.594208         10.578555
 ***** Axes restored to original set *****
 -------------------------------------------------------------------
 Center     Atomic                   Forces (Hartrees/Bohr)
 Number     Number              X              Y              Z
 -------------------------------------------------------------------
    1          7          -0.000017769   -0.000002727    0.000000000
    2          7          -0.000459751    0.000050750    0.000000000
    3          7           0.000264759   -0.000234869    0.000000000
    4          1           0.000008593    0.000052238    0.000000000
    5          7          -0.000277563    0.000071401    0.000000000
    6          6           0.000468491    0.000120638    0.000000000
    7          1           0.000013240   -0.000057432    0.000000000
 -------------------------------------------------------------------
 Cartesian Forces:  Max     0.000468491 RMS     0.000177547

 GradGradGradGradGradGradGradGradGradGradGradGradGradGradGradGradGradGrad
 Berny optimization.
 Internal  Forces:  Max     0.000439423 RMS     0.000122588
 Search for a local minimum.
 Step number   1 out of a maximum of  36
 All quantities printed in internal units (Hartrees-Bohrs-Radians)
 Second derivative matrix not updated -- analytic derivatives used.
     Eigenvalues ---    0.01189   0.02633   0.07185   0.07680   0.09954
     Eigenvalues ---    0.10901   0.16862   0.20176   0.31360   0.36829
     Eigenvalues ---    0.39111   0.43604   0.48661   0.53479   0.60183
     Eigenvalues --- 1000.000001000.000001000.000001000.000001000.00000
     Eigenvalues --- 1000.000001000.000001000.000001000.000001000.00000
     Eigenvalues --- 1000.00000
 Angle between quadratic step and forces=  32.06 degrees.
 Linear search not attempted -- first point.
 Iteration  1 RMS(Cart)=  0.00040071 RMS(Int)=  0.00000013
 Iteration  2 RMS(Cart)=  0.00000012 RMS(Int)=  0.00000000
 Variable       Old X    -DE/DX   Delta X   Delta X   Delta X     New X
                                 (Linear)    (Quad)   (Total)
    R1        2.51463  -0.00007   0.00000  -0.00021  -0.00021   2.51442
    R2        2.66465  -0.00001   0.00000  -0.00061  -0.00061   2.66404
    R3        2.63578   0.00044   0.00000   0.00157   0.00157   2.63735
    R4        1.91028   0.00005   0.00000   0.00011   0.00011   1.91039
    R5        2.57988  -0.00003   0.00000  -0.00035  -0.00035   2.57952
    R6        2.53703   0.00027   0.00000   0.00083   0.00083   2.53786
    R7        2.03529   0.00003   0.00000   0.00006   0.00006   2.03535
    A1        1.93085  -0.00002   0.00000   0.00031   0.00031   1.93116
    A2        1.84226  -0.00004   0.00000  -0.00042  -0.00042   1.84184
    A3        2.08481  -0.00006   0.00000  -0.00053  -0.00053   2.08428
    A4        1.90380   0.00008   0.00000   0.00016   0.00016   1.90397
    A5        2.29457  -0.00001   0.00000   0.00037   0.00037   2.29494
    A6        1.84906   0.00019   0.00000   0.00039   0.00039   1.84946
    A7        1.89880  -0.00020   0.00000  -0.00044  -0.00044   1.89836
    A8        2.19105   0.00015   0.00000   0.00090   0.00090   2.19195
    A9        2.19334   0.00006   0.00000  -0.00046  -0.00046   2.19288
    D1        0.00000   0.00000   0.00000   0.00000   0.00000   0.00000
    D2        0.00000   0.00000   0.00000   0.00000   0.00000   0.00000
    D3        3.14159   0.00000   0.00000   0.00000   0.00000   3.14159
    D4        0.00000   0.00000   0.00000   0.00000   0.00000   0.00000
    D5        0.00000   0.00000   0.00000   0.00000   0.00000   0.00000
    D6        3.14159   0.00000   0.00000   0.00000   0.00000   3.14159
    D7        3.14159   0.00000   0.00000   0.00000   0.00000   3.14159
    D8        0.00000   0.00000   0.00000   0.00000   0.00000   0.00000
    D9        0.00000   0.00000   0.00000   0.00000   0.00000   0.00000
   D10        3.14159   0.00000   0.00000   0.00000   0.00000   3.14159
         Item               Value     Threshold  Converged?
 Maximum Force            0.000439     0.000450     YES
 RMS     Force            0.000123     0.000300     YES
 Maximum Displacement     0.001129     0.001800     YES
 RMS     Displacement     0.000401     0.001200     YES
 Predicted change in Energy=-6.377899D-07
 Optimization completed.
    -- Stationary point found.
                         ----------------------------
                         !   Optimized Parameters   !
                         ! (Angstroms and Degrees)  !
 ------------------------                            -------------------------
 ! Name  Definition              Value          Derivative Info.             !
 -----------------------------------------------------------------------------
 ! R1    R(1,2)                  1.3307         -DE/DX =   -0.0001           !
 ! R2    R(1,5)                  1.4101         -DE/DX =    0.               !
 ! R3    R(2,3)                  1.3948         -DE/DX =    0.0004           !
 ! R4    R(3,4)                  1.0109         -DE/DX =    0.               !
 ! R5    R(3,6)                  1.3652         -DE/DX =    0.               !
 ! R6    R(5,6)                  1.3425         -DE/DX =    0.0003           !
 ! R7    R(6,7)                  1.077          -DE/DX =    0.               !
 ! A1    A(2,1,5)              110.6296         -DE/DX =    0.               !
 ! A2    A(1,2,3)              105.5538         -DE/DX =    0.               !
 ! A3    A(2,3,4)              119.4507         -DE/DX =   -0.0001           !
 ! A4    A(2,3,6)              109.0799         -DE/DX =    0.0001           !
 ! A5    A(4,3,6)              131.4695         -DE/DX =    0.               !
 ! A6    A(1,5,6)              105.9435         -DE/DX =    0.0002           !
 ! A7    A(3,6,5)              108.7933         -DE/DX =   -0.0002           !
 ! A8    A(3,6,7)              125.5377         -DE/DX =    0.0001           !
 ! A9    A(5,6,7)              125.669          -DE/DX =    0.0001           !
 ! D1    D(5,1,2,3)              0.             -DE/DX =    0.               !
 ! D2    D(2,1,5,6)              0.             -DE/DX =    0.               !
 ! D3    D(1,2,3,4)            180.             -DE/DX =    0.               !
 ! D4    D(1,2,3,6)              0.             -DE/DX =    0.               !
 ! D5    D(2,3,6,5)              0.             -DE/DX =    0.               !
 ! D6    D(2,3,6,7)            180.             -DE/DX =    0.               !
 ! D7    D(4,3,6,5)            180.             -DE/DX =    0.               !
 ! D8    D(4,3,6,7)              0.             -DE/DX =    0.               !
 ! D9    D(1,5,6,3)              0.             -DE/DX =    0.               !
 ! D10   D(1,5,6,7)            180.             -DE/DX =    0.               !
 -----------------------------------------------------------------------------
 GradGradGradGradGradGradGradGradGradGradGradGradGradGradGradGradGradGrad

 1\1\GINC-INDIUM\Freq\RB3LYP\LANL2DZ\C1H2N4\RDJ3\27-Oct-2000\0\\#N GEOM
 =ALLCHECK GUESS=TCHECK RB3LYP/LANL2DZ FREQ\\1H tetrazole c CH-NH-N=N-N
 = casno=288948\\0,1\N,-1.1815302168,-0.2747708081,0.\N,-0.7036011123,0
 .9671233534,0.\N,0.684785063,0.8335620081,0.\H,1.2638123945,1.66217371
 09,0.\N,-0.128359792,-1.212393868,0.\C,1.0054563834,-0.4934543663,0.\H
 ,2.0043917115,-0.8960923112,0.\\Version=IBM-RS6000-G98RevA.6\State=1-A
 '\HF=-258.1831717\RMSD=7.291e-09\RMSF=1.775e-04\Dipole=2.1318504,0.906
 7016,0.\DipoleDeriv=0.0842403,-0.1214522,-0.0021074,-0.1787472,0.03362
 71,0.0000316,0.0034117,0.0025292,-0.1706994,0.3204852,0.1931336,0.0016
 2,0.1720961,-0.2848507,0.0014438,-0.0005867,-0.0001762,-0.0915686,-0.4
 408258,-0.273292,0.0002158,-0.2031011,-0.3067674,-0.0005904,-0.0016331
 ,-0.0009965,-0.2004146,0.2399375,0.0360295,-0.0008101,0.039403,0.27256
 2,-0.0009485,0.0002563,0.0000997,0.404009,-0.3998994,0.141548,0.001183
 6,-0.0198495,-0.2292342,-0.0015583,-0.0015341,-0.0011815,-0.1855781,0.
 126965,0.010956,0.0001383,0.1859941,0.3659391,0.0015382,-0.0000207,-0.
 0002764,0.0267578,0.0690975,0.0130769,-0.0002402,0.0042046,0.1487243,0
 .0000837,0.0001066,0.0000017,0.2174939\Polar=40.5256539,0.0235421,38.7
 693673,-0.0374483,-0.0208508,15.3451592\PG=CS [SG(C1H2N4)]\NImag=0\\0.
 46922475,0.08491715,0.37358470,-0.00020619,0.00006298,0.11170663,-0.10
 668404,-0.09412743,0.00013994,0.34769083,-0.02234203,-0.24895538,0.000
 11722,-0.03587529,0.51481832,0.00001996,-0.00000843,-0.08604557,-0.000
 01689,-0.00001144,0.10339917,-0.11189864,-0.09072192,0.00001029,-0.159
 90745,0.00599400,-0.00001344,0.59545499,-0.02884207,-0.05899904,-0.000
 08280,0.04662995,-0.10803004,0.00002250,0.22315847,0.89730530,0.000104
 89,-0.00000872,0.02239326,-0.00007345,-0.00006777,-0.06760388,0.000002
 25,0.00002413,0.11320766,-0.00951136,-0.00044646,-0.00006968,-0.005818
 13,-0.03300003,0.00001766,-0.19730469,-0.18956870,0.00002998,0.1997673
 2,0.00865224,0.00194217,-0.00008310,0.00701514,0.01146049,0.00002120,-
 0.19395575,-0.35003240,0.00003413,0.19879904,0.34578023,-0.00001467,-0
 .00000210,0.00715306,0.00001142,0.00001059,-0.00822993,0.00000094,-0.0
 0000344,-0.01914639,-0.00000555,-0.00000612,0.01901899,-0.12372233,0.0
 4773607,0.00009401,-0.01173491,0.07747436,-0.00001804,0.00122360,-0.10
 384276,-0.00005828,-0.00134026,0.00006419,0.00001081,0.41926393,-0.008
 02383,-0.08727495,-0.00021103,-0.01410532,-0.11353947,0.00001680,-0.00
 404060,-0.08619369,0.00008723,0.00872849,-0.00485067,-0.00000734,0.104
 96174,0.45178455,0.00009730,-0.00003446,-0.08282729,-0.00006193,-0.000
 05326,0.03164914,0.00000004,0.00003936,0.02145824,0.00002926,0.0000344
 8,0.00756073,-0.00004571,0.00010314,0.10382671,-0.11603098,0.05311426,
 0.00006510,-0.06409522,0.01213620,-0.00000097,-0.13419137,0.05953726,-
 0.00001207,0.01471853,-0.02143777,-0.00000176,-0.27105738,-0.09920271,
 -0.00003349,0.90500036,-0.02885020,0.02111755,0.00018540,0.09266694,-0
 .05059084,-0.00003709,0.02735648,-0.28764679,-0.00006615,0.01572907,-0
 .00395365,0.00000816,-0.10702451,-0.17217864,-0.00008400,-0.11750745,0
 .59158609,0.00000506,-0.00000831,0.01905597,-0.00000356,-0.00000013,0.
 02173113,0.00000030,0.00000108,-0.06926142,0.00000003,0.00000117,-0.00
 549372,0.00001102,0.00001575,-0.07742910,-0.00001432,-0.00000942,0.141
 43342,-0.00137739,-0.00047168,-0.00003347,0.00054893,-0.00438720,0.000
 01171,0.00662355,-0.00707214,0.00000668,-0.00051141,0.00086291,-0.0000
 0118,-0.01263265,0.01168222,0.00001454,-0.33434395,0.11762969,0.000001
 47,0.34169292,-0.00551126,-0.00141505,0.00001134,-0.00220399,-0.005163
 07,-0.00000354,0.03220933,-0.00640334,-0.00000285,-0.00024140,-0.00034
 618,0.00000024,-0.01936909,0.01225287,-0.00000527,0.11336021,-0.098333
 71,-0.00000013,-0.11824381,0.09940848,-0.00000636,-0.00000094,0.008563
 94,0.00000447,0.00000481,0.00509994,-0.00000039,-0.00000085,-0.0010474
 7,-0.00000170,-0.00000177,-0.00086274,0.00000620,-0.00000455,-0.004238
 43,-0.00000249,0.00000309,-0.03003628,0.00000025,0.00000021,0.02252103
 \\0.00001777,0.00000273,0.,0.00045975,-0.00005075,0.,-0.00026476,0.000
 23487,0.,-0.00000859,-0.00005224,0.,0.00027756,-0.00007140,0.,-0.00046
 849,-0.00012064,0.,-0.00001324,0.00005743,0.\\\@

 Sometimes the fool who rushes in gets the job done.
                                    -- Al Bernstein
 Job cpu time:  0 days  0 hours  2 minutes 13.7 seconds.
 File lengths (MBytes):  RWF=   12 Int=    0 D2E=    0 Chk=    8 Scr=    1
 Normal termination of Gaussian 98.
