 Gaussian 98, Revision A.4,
 Gaussian 98:  x86-Linux-G98RevA.4 11-Sep-1998

 ----------------------
 #B3LYP/6-31G* OPT FREQ
 ----------------------

 ----------------------------------------
 1H tetrazole c CH-NH-N=N-N= casno=288948
 ----------------------------------------
 Symbolic Z-matrix:
 Charge =  0 Multiplicity = 1

 SCF Done:  E(RB+HF-LYP) =  -258.246279946     A.U. after   15 cycles
 SCF Done:  E(RB+HF-LYP) =  -258.250819018     A.U. after   13 cycles
 SCF Done:  E(RB+HF-LYP) =  -258.250892924     A.U. after   10 cycles
 SCF Done:  E(RB+HF-LYP) =  -258.250899114     A.U. after    9 cycles
 SCF Done:  E(RB+HF-LYP) =  -258.250904266     A.U. after    9 cycles
 Optimization completed.
    -- Stationary point found.
 Normal termination of Gaussian 98.

 --------------------------------------------------
 #N Geom=AllCheck Guess=TCheck RB3LYP/6-31G(d) Freq
 --------------------------------------------------

 1H tetrazole c CH-NH-N=N-N= casno=288948
 ----------------------------------------
 Redundant internal coordinates taken from checkpointfile:
 /wrk/rdj3/Gau-1173.chk
 Charge =  0 Multiplicity = 1

                         Standard orientation:
 ---------------------------------------------------------------------
 Center     Atomic     Atomic              Coordinates (Angstroms)
 Number     Number      Type              X           Y           Z
 ---------------------------------------------------------------------
    1          7             0       -0.724102   -0.927294    0.000000
    2          7             0       -1.123426    0.301193    0.000000
    3          7             0        0.000000    1.056198    0.000000
    4          1             0       -0.063518    2.065021    0.000000
    5          7             0        0.640599   -1.007741    0.000000
    6          6             0        1.069085    0.235734    0.000000
    7          1             0        2.097519    0.564078    0.000000
 ---------------------------------------------------------------------

 SCF Done:  E(RB+HF-LYP) =  -258.250904266     A.U. after    1 cycles

  The electronic state is 1-A'.
 Alpha  occ. eigenvalues --  -14.45151 -14.41544 -14.39752 -14.36777 -10.28328
 Alpha  occ. eigenvalues --   -1.14485  -0.94922  -0.89754  -0.68337  -0.66765
 Alpha  occ. eigenvalues --   -0.60021  -0.50307  -0.49800  -0.38213  -0.33356
 Alpha  occ. eigenvalues --   -0.31254  -0.30643  -0.29335
 Alpha virt. eigenvalues --   -0.02322   0.01435   0.05212   0.10447   0.17843
 Alpha virt. eigenvalues --    0.19874   0.27856   0.32047   0.40590   0.51336
 Alpha virt. eigenvalues --    0.51690   0.59190   0.60153   0.63926   0.66179

  Exact polarizability:  37.549   0.965  36.967   0.005   0.006  15.528
 Approx polarizability:  66.086   0.272  70.438   0.000   0.000  23.966

                     1                      2                      3
                    A"                     A"                     A"
 Frequencies --   565.3112               690.5776               737.2213
 Red. masses --     1.7213                 2.0487                 8.4691
 Frc consts  --     0.3241                 0.5757                 2.7120
 IR Inten    --    91.7895                 8.2829                 7.9010
 Raman Activ --     0.0000                 0.0000                 0.0000

                     4                      5                      6
                    A"                     A'                     A'
 Frequencies --   848.5335               968.6101              1010.5401
 Red. masses --     1.3483                 5.1112                 6.2917
 Frc consts  --     0.5720                 2.8253                 3.7855
 IR Inten    --    17.0345                 4.3722                 0.1716
 Raman Activ --     0.0000                 0.0000                 0.0000

                     7                      8                      9
                    A'                     A'                     A'
 Frequencies --  1045.0525              1069.0288              1151.4320
 Red. masses --     4.9556                 3.6455                 1.8969
 Frc consts  --     3.1888                 2.4546                 1.4818
 IR Inten    --    16.7018                28.2785                15.8016
 Raman Activ --     0.0000                 0.0000                 0.0000

                    10                     11                     12
                    A'                     A'                     A'
 Frequencies --  1272.6127              1300.2715              1466.2947
 Red. masses --     2.2855                10.9412                 3.1549
 Frc consts  --     2.1808                10.8989                 3.9964
 IR Inten    --     3.0210                16.0164                 9.2156
 Raman Activ --     0.0000                 0.0000                 0.0000

                    13                     14                     15
                    A'                     A'                     A'
 Frequencies --  1517.6441              3309.1039              3652.3328
 Red. masses --     3.2333                 1.1002                 1.0836
 Frc consts  --     4.3876                 7.0981                 8.5163
 IR Inten    --    18.4210                 0.6798                80.6026
 Raman Activ --     0.0000                 0.0000                 0.0000

 - Thermochemistry -
 -------------------
 Temperature   298.150 Kelvin.  Pressure   1.00000 Atm.
 Atom  1 has atomic number  7 and mass  14.00307

 Molecular mass:    70.02795 amu.
 Principal axes and moments of inertia in atomic units:
                           1         2         3
     EIGENVALUES --   171.94958 175.14954 347.09911
           X            0.88753   0.46075   0.00000
           Y           -0.46075   0.88753   0.00000
           Z            0.00000   0.00000   1.00000
 THIS MOLECULE IS AN ASYMMETRIC TOP.
 ROTATIONAL SYMMETRY NUMBER  1.
 ROTATIONAL TEMPERATURES (KELVIN)      0.50371     0.49451     0.24954
 ROTATIONAL CONSTANTS (GHZ)           10.49576    10.30400     5.19950
 Zero-point vibrational energy     123242.7 (Joules/Mol)
                                   29.45571 (Kcal/Mol)
 WARNING-- EXPLICIT CONSIDERATION OF   1 DEGREES OF FREEDOM AS
           VIBRATIONS MAY CAUSE SIGNIFICANT ERROR
 VIBRATIONAL TEMPERATURES:    813.35   993.58  1060.69  1220.84  1393.61
          (KELVIN)           1453.93  1503.59  1538.09  1656.64  1831.00
                             1870.79  2109.66  2183.54  4761.03  5254.86

 Zero-point correction=                           0.046941 (Hartree/Particle)
 Thermal correction to Energy=                    0.050424
 Thermal correction to Enthalpy=                  0.051368
 Thermal correction to Gibbs Free Energy=         0.020835
 Sum of electronic and zero-point Energies=           -258.203964
 Sum of electronic and thermal Energies=              -258.200480
 Sum of electronic and thermal Enthalpies=            -258.199536
 Sum of electronic and thermal Free Energies=         -258.230069

                     E (Thermal)             CV                S
                      KCAL/MOL        CAL/MOL-KELVIN    CAL/MOL-KELVIN
 TOTAL                   31.642             11.369             64.263
 ELECTRONIC               0.000              0.000              0.000
 TRANSLATIONAL            0.889              2.981             38.656
 ROTATIONAL               0.889              2.981             23.862
 VIBRATIONAL             29.864              5.408              1.744
 VIBRATION  1             0.921              1.106              0.513
                       Q            LOG10(Q)             LN(Q)
 TOTAL BOT       0.260968D-09         -9.583412        -22.066622
 TOTAL V=0       0.101777D+13         12.007648         27.648630
 VIB (BOT)       0.309556D-21        -21.509261        -49.526903
 VIB (BOT)  1    0.273511D+00         -0.563026         -1.296415
 VIB (V=0)       0.120725D+01          0.081799          0.188349
 VIB (V=0)  1    0.106992D+01          0.029351          0.067583
 ELECTRONIC      0.100000D+01          0.000000          0.000000
 TRANSLATIONAL   0.230339D+08          7.362368         16.952478
 ROTATIONAL      0.366000D+05          4.563481         10.507804
 ***** Axes restored to original set *****
 -------------------------------------------------------------------
 Center     Atomic                   Forces (Hartrees/Bohr)
 Number     Number              X              Y              Z
 -------------------------------------------------------------------
    1          7           0.000022794   -0.000435833    0.000000000
    2          7           0.000086334   -0.000008544    0.000000000
    3          7          -0.000259410   -0.000041120    0.000000000
    4          1          -0.000010383   -0.000011608    0.000000000
    5          7          -0.000091632    0.000566972    0.000000000
    6          6           0.000279586   -0.000034397    0.000000000
    7          1          -0.000027288   -0.000035471    0.000000000
 -------------------------------------------------------------------
 Cartesian Forces:  Max     0.000566972 RMS     0.000179739

 GradGradGradGradGradGradGradGradGradGradGradGradGradGradGradGradGradGrad
 Berny optimization.
 Internal  Forces:  Max     0.000424309 RMS     0.000102598
 Search for a local minimum.
 Step number   1 out of a maximum of  36
 All quantities printed in internal units (Hartrees-Bohrs-Radians)
 Second derivative matrix not updated -- analytic derivatives used.
     Eigenvalues ---    0.00772   0.02490   0.07166   0.07817   0.10282
     Eigenvalues ---    0.10668   0.19628   0.24348   0.34750   0.38191
     Eigenvalues ---    0.43545   0.46664   0.47876   0.57874   0.63198
     Eigenvalues --- 1000.000001000.000001000.000001000.000001000.00000
     Eigenvalues --- 1000.000001000.000001000.000001000.000001000.00000
     Eigenvalues --- 1000.00000
 Angle between quadratic step and forces=  17.70 degrees.
 Linear search not attempted -- first point.
 Iteration  1 RMS(Cart)=  0.00032857 RMS(Int)=  0.00000008
 Iteration  2 RMS(Cart)=  0.00000008 RMS(Int)=  0.00000003
 Variable       Old X    -DE/DX   Delta X   Delta X   Delta X     New X
                                 (Linear)    (Quad)   (Total)
    R1        2.44107   0.00000   0.00000   0.00046   0.00046   2.44153
    R2        2.58339  -0.00042   0.00000  -0.00184  -0.00184   2.58154
    R3        2.55785  -0.00008   0.00000  -0.00033  -0.00033   2.55752
    R4        1.91017  -0.00001   0.00000  -0.00001  -0.00001   1.91016
    R5        2.54665  -0.00014   0.00000  -0.00037  -0.00037   2.54628
    R6        2.48543   0.00009   0.00000   0.00053   0.00053   2.48596
    R7        2.04010   0.00002   0.00000   0.00000   0.00000   2.04011
    A1        1.94396   0.00000   0.00000   0.00009   0.00009   1.94405
    A2        1.84824  -0.00004   0.00000  -0.00036  -0.00036   1.84788
    A3        2.09964  -0.00002   0.00000  -0.00019  -0.00019   2.09945
    A4        1.89530   0.00006   0.00000   0.00042   0.00042   1.89572
    A5        2.28825  -0.00003   0.00000  -0.00023  -0.00023   2.28802
    A6        1.84376   0.00013   0.00000   0.00058   0.00058   1.84434
    A7        1.89352  -0.00015   0.00000  -0.00073  -0.00073   1.89280
    A8        2.17798   0.00011   0.00000   0.00082   0.00082   2.17880
    A9        2.21168   0.00004   0.00000  -0.00009  -0.00009   2.21159
    D1        0.00000   0.00000   0.00000   0.00000   0.00000   0.00000
    D2        0.00000   0.00000   0.00000   0.00000   0.00000   0.00000
    D3        3.14159   0.00000   0.00000   0.00000   0.00000   3.14159
    D4        0.00000   0.00000   0.00000   0.00000   0.00000   0.00000
    D5        0.00000   0.00000   0.00000   0.00000   0.00000   0.00000
    D6        3.14159   0.00000   0.00000   0.00000   0.00000   3.14159
    D7        3.14159   0.00000   0.00000   0.00000   0.00000   3.14159
    D8        0.00000   0.00000   0.00000   0.00000   0.00000   0.00000
    D9        0.00000   0.00000   0.00000   0.00000   0.00000   0.00000
   D10        3.14159   0.00000   0.00000   0.00000   0.00000   3.14159
         Item               Value     Threshold  Converged?
 Maximum Force            0.000424     0.000450     YES
 RMS     Force            0.000103     0.000300     YES
 Maximum Displacement     0.001098     0.001800     YES
 RMS     Displacement     0.000329     0.001200     YES
 Predicted change in Energy=-6.147024D-07
 Optimization completed.
    -- Stationary point found.
                         ----------------------------
                         !   Optimized Parameters   !
                         ! (Angstroms and Degrees)  !
 ------------------------                            -------------------------
 ! Name  Definition              Value          Derivative Info.             !
 -----------------------------------------------------------------------------
 ! R1    R(1,2)                  1.2918         -DE/DX =    0.               !
 ! R2    R(1,5)                  1.3671         -DE/DX =   -0.0004           !
 ! R3    R(2,3)                  1.3536         -DE/DX =   -0.0001           !
 ! R4    R(3,4)                  1.0108         -DE/DX =    0.               !
 ! R5    R(3,6)                  1.3476         -DE/DX =   -0.0001           !
 ! R6    R(5,6)                  1.3152         -DE/DX =    0.0001           !
 ! R7    R(6,7)                  1.0796         -DE/DX =    0.               !
 ! A1    A(2,1,5)              111.3805         -DE/DX =    0.               !
 ! A2    A(1,2,3)              105.8964         -DE/DX =    0.               !
 ! A3    A(2,3,4)              120.3006         -DE/DX =    0.               !
 ! A4    A(2,3,6)              108.5924         -DE/DX =    0.0001           !
 ! A5    A(4,3,6)              131.107          -DE/DX =    0.               !
 ! A6    A(1,5,6)              105.6397         -DE/DX =    0.0001           !
 ! A7    A(3,6,5)              108.4909         -DE/DX =   -0.0001           !
 ! A8    A(3,6,7)              124.7892         -DE/DX =    0.0001           !
 ! A9    A(5,6,7)              126.7198         -DE/DX =    0.               !
 ! D1    D(5,1,2,3)              0.             -DE/DX =    0.               !
 ! D2    D(2,1,5,6)              0.             -DE/DX =    0.               !
 ! D3    D(1,2,3,4)            180.             -DE/DX =    0.               !
 ! D4    D(1,2,3,6)              0.             -DE/DX =    0.               !
 ! D5    D(2,3,6,5)              0.             -DE/DX =    0.               !
 ! D6    D(2,3,6,7)            180.             -DE/DX =    0.               !
 ! D7    D(4,3,6,5)            180.             -DE/DX =    0.               !
 ! D8    D(4,3,6,7)              0.             -DE/DX =    0.               !
 ! D9    D(1,5,6,3)              0.             -DE/DX =    0.               !
 ! D10   D(1,5,6,7)            180.             -DE/DX =    0.               !
 -----------------------------------------------------------------------------
 GradGradGradGradGradGradGradGradGradGradGradGradGradGradGradGradGradGrad

 1\1\GINC-QCHEM3\Freq\RB3LYP\6-31G(d)\C1H2N4\RDJ3\19-Jan-1999\0\\#N GEO
 M=ALLCHECK GUESS=TCHECK RB3LYP/6-31G(D) FREQ\\1H tetrazole c CH-NH-N=N
 -N= casno=288948\\0,1\N,-1.0598314266,0.5108383406,0.\N,0.0559415833,1
 .1617550438,0.\N,1.0321444812,0.2241264775,0.\H,2.0045137321,0.5002714
 477,0.\N,-0.8488549929,-0.8398533308,0.\C,0.4572268133,-0.9947142576,0
 .\H,0.9963278729,-1.9300516204,0.\\Version=x86-Linux-G98RevA.4\State=1
 -A'\HF=-258.2509043\RMSD=3.811e-09\RMSF=1.797e-04\Dipole=2.0244292,-0.
 555866,0.\DipoleDeriv=-0.1755112,0.0631525,0.0002628,-0.0021809,0.2103
 037,-0.0000416,0.0000387,0.0000185,-0.1537529,0.2798052,-0.2172002,-0.
 0002513,-0.2539601,-0.3355387,-0.0000781,0.0004645,-0.0001647,-0.09625
 33,-0.5228844,-0.025279,-0.00011,0.060462,-0.0417779,0.0000082,-0.0005
 636,0.0001866,-0.1628134,0.2532175,0.0306668,0.0001368,0.0188781,0.210
 5325,0.0000528,-0.0001639,0.0000674,0.3492536,-0.2860795,0.0796616,0.0
 000165,-0.0503249,-0.4070313,0.0001643,0.0002046,-0.0000787,-0.2054859
 ,0.3702797,0.0317068,-0.0000601,0.1914818,0.2856,-0.0000556,0.0000274,
 -0.0001746,0.1117338,0.0811731,0.0372913,0.0000053,0.035644,0.0779118,
 -0.00005,-0.0000078,0.0001455,0.1573181\Polar=37.3928502,-0.9986664,37
 .1229701,0.0073915,-0.0039691,15.5277927\PG=CS [SG(C1H2N4)]\NImag=0\\0
 .61154732,-0.01383905,0.40765147,0.00000140,-0.00000025,0.12377834,-0.
 28750582,-0.13528821,-0.00000276,0.46090167,-0.07554172,-0.17171751,0.
 00000037,0.08310413,0.56790052,-0.00002004,0.00000739,-0.09632590,0.00
 001823,0.00001228,0.11385095,-0.16216422,-0.02865483,0.00000122,-0.132
 73132,0.03473484,-0.00000143,0.94750361,0.04774060,-0.01322267,-0.0000
 0014,0.06916722,-0.19489337,-0.00000484,0.17727976,0.62303858,0.000027
 48,-0.00001012,0.02636319,-0.00002295,-0.00002040,-0.06703504,0.000003
 83,0.00000738,0.08787832,-0.00328848,0.00211352,0.00000137,-0.01345116
 ,-0.01195408,-0.00000124,-0.42759481,-0.10551241,-0.00000253,0.4421958
 9,0.01154420,-0.00649168,0.00000025,0.02232872,0.01986072,-0.00000093,
 -0.11271355,-0.10556313,0.00000015,0.10955430,0.09013907,0.00000184,0.
 00000014,0.00786662,-0.00000166,0.00000095,-0.01235321,-0.00000409,-0.
 00000017,-0.00559477,0.00000336,0.00000119,0.01323423,-0.10856044,0.04
 542272,-0.00000097,-0.01438973,0.00146013,-0.00000921,-0.08784157,-0.1
 0793452,0.00001700,0.00097839,-0.00708068,-0.00000241,0.60618188,0.006
 55349,-0.17312151,0.00000198,-0.10405958,-0.11051468,-0.00001898,0.006
 11634,0.00308907,0.00002562,0.00304172,-0.00780135,0.00000014,0.043813
 53,0.39920229,-0.00000467,0.00000070,-0.08953539,0.00000296,0.00000258
 ,0.03536036,0.00000374,-0.00000092,0.02062819,-0.00000168,-0.00000084,
 0.00753916,-0.00000075,-0.00000236,0.10890089,-0.04443265,0.12714652,-
 0.00000081,-0.00804259,-0.02696458,0.00001494,-0.15261852,-0.06170204,
 -0.00002369,0.00137565,-0.02402288,0.00000282,-0.38942601,0.01690829,0
 .00000028,0.72457478,0.02652506,-0.04399678,-0.00000128,0.06642521,-0.
 10891312,0.00000414,-0.09218223,-0.29684738,-0.00000347,0.00307903,0.0
 1048162,-0.00000118,0.02359176,-0.11727354,0.00000080,-0.16312173,0.84
 822183,-0.00000683,-0.00000227,0.01879452,0.00000662,0.00000392,0.0203
 5342,0.00000055,-0.00000142,-0.05912059,-0.00000320,-0.00000122,-0.009
 96661,0.00000429,-0.00000297,-0.07758206,-0.00000140,0.00000260,0.1362
 0930,-0.00559571,0.00309932,0.00000054,-0.00478106,-0.00483873,-0.0000
 0126,0.01544683,-0.01903861,0.00000086,-0.00021548,0.00038989,0.000000
 15,-0.00694253,0.02762621,0.00000012,-0.13143066,0.13568290,-0.0000000
 4,0.13351863,-0.00298259,0.00089869,-0.00000093,-0.00167750,-0.0017225
 5,0.00000094,0.01541966,-0.01560109,0.00000083,-0.00032208,-0.00062526
 ,-0.00000107,0.00072707,0.00641972,0.00000004,0.13175643,-0.29167264,0
 .00000136,-0.14292099,0.30230314,0.00000082,0.00000442,0.00905864,-0.0
 0000044,0.00000029,0.00614943,-0.00000383,0.00000011,-0.00311931,0.000
 00390,0.00000140,-0.00072542,-0.00000795,-0.00000344,-0.00531114,0.000
 00786,-0.00000161,-0.02868798,-0.00000037,-0.00000118,0.02263578\\-0.0
 0002279,0.00043583,0.,-0.00008633,0.00000854,0.,0.00025941,0.00004112,
 0.,0.00001038,0.00001161,0.,0.00009163,-0.00056697,0.,-0.00027959,0.00
 003440,0.,0.00002729,0.00003547,0.\\\@

 IT IS A PROFOUNDLY ERRONEOUS TRUISM ... THAT WE SHOULD CULTIVATE
 THE HABIT OF THINKING OF WHAT WE ARE DOING.
 THE PRECISE OPPOSITE IS THE CASE.
 CIVILIZATION ADVANCES BY EXTENDING THE NUMBER OF IMPORTANT OPERATIONS
 WHICH WE CAN PERFORM WITHOUT THINKING ABOUT THEM.

                                    -- ALFRED NORTH WHITEHEAD
 Job cpu time:  0 days  0 hours 22 minutes 30.8 seconds.
 File lengths (MBytes):  RWF=   10 Int=    0 D2E=    0 Chk=    3 Scr=    1
 Normal termination of Gaussian 98.
