 Gaussian 98, Revision A.6,
 Gaussian 98:  IBM-RS6000-G98RevA.6 19-Oct-1998

 -----------------------
 #B3LYP/CEP-31G opt freq
 -----------------------

 ----------------------------------------
 1H tetrazole c CH-NH-N=N-N= casno=288948
 ----------------------------------------
 Symbolic Z-matrix:
 Charge =  0 Multiplicity = 1

 SCF Done:  E(RB+HF-LYP) =  -46.2693875838     A.U. after   14 cycles
 SCF Done:  E(RB+HF-LYP) =  -46.2957395761     A.U. after   15 cycles
 SCF Done:  E(RB+HF-LYP) =  -46.2964931462     A.U. after   15 cycles
 SCF Done:  E(RB+HF-LYP) =  -46.2967868490     A.U. after   13 cycles
 SCF Done:  E(RB+HF-LYP) =  -46.2968201471     A.U. after   10 cycles
 SCF Done:  E(RB+HF-LYP) =  -46.2968230515     A.U. after   10 cycles
 Optimization completed.
    -- Stationary point found.
 Normal termination of Gaussian 98.

 -------------------------------------------------
 #N Geom=AllCheck Guess=TCheck RB3LYP/CEP-31G Freq
 -------------------------------------------------

 1H tetrazole c CH-NH-N=N-N= casno=288948
 ----------------------------------------
 Redundant internal coordinates taken from checkpointfile:
 /wrk/rdj3/Gau-15748.chk
 Charge =  0 Multiplicity = 1

                         Standard orientation:
 ---------------------------------------------------------------------
 Center     Atomic     Atomic              Coordinates (Angstroms)
 Number     Number      Type              X           Y           Z
 ---------------------------------------------------------------------
    1          7             0       -0.764918   -0.987644    0.000000
    2          7             0       -1.177545    0.289064    0.000000
    3          7             0        0.000000    1.062982    0.000000
    4          1             0       -0.054387    2.077247    0.000000
    5          7             0        0.657198   -1.062143    0.000000
    6          6             0        1.088704    0.219479    0.000000
    7          1             0        2.125898    0.533545    0.000000
 ---------------------------------------------------------------------

 SCF Done:  E(RB+HF-LYP) =  -46.2968230515     A.U. after    1 cycles

  The electronic state is 1-A'.
 Alpha  occ. eigenvalues --   -1.15916  -0.96702  -0.92649  -0.69836  -0.67974
 Alpha  occ. eigenvalues --   -0.61154  -0.51349  -0.50026  -0.38443  -0.34611
 Alpha  occ. eigenvalues --   -0.32820  -0.31869  -0.30731
 Alpha virt. eigenvalues --   -0.05845  -0.02016   0.04852   0.09386   0.12416
 Alpha virt. eigenvalues --    0.13341   0.19530   0.25325   0.27440   0.28088
 Alpha virt. eigenvalues --    0.31390   0.44407   0.45751   0.46216   0.49082

  Exact polarizability:  40.405   0.629  40.511  -0.008   0.006  16.352
 Approx polarizability:  71.708  -0.820  77.970   0.000   0.000  20.712

                     1                      2                      3
                    A"                     A"                     A"
 Frequencies --   633.0807               682.5430               713.1379
 Red. masses --     4.9103                10.0221                 1.1207
 Frc consts  --     1.1595                 2.7509                 0.3358
 IR Inten    --    24.1617                 0.0209               134.6659
 Raman Activ --     0.0000                 0.0000                 0.0000

                     4                      5                      6
                    ?A                     ?A                     A'
 Frequencies --   847.3680               878.2402               950.4912
 Red. masses --     1.3543                 7.1273                 5.0780
 Frc consts  --     0.5729                 3.2390                 2.7030
 IR Inten    --    32.9830                 7.0698                16.8049
 Raman Activ --     0.0000                 0.0000                 0.0000

                     7                      8                      9
                    A'                     A'                     A'
 Frequencies --   972.9534              1004.1712              1117.1607
 Red. masses --     7.5955                 6.0033                 1.8614
 Frc consts  --     4.2363                 3.5666                 1.3688
 IR Inten    --     7.2716                15.9485                17.6674
 Raman Activ --     0.0000                 0.0000                 0.0000

                    10                     11                     12
                    A'                     A'                     A'
 Frequencies --  1173.5882              1206.5427              1368.5895
 Red. masses --     5.7305                 2.8355                 2.9196
 Frc consts  --     4.6502                 2.4320                 3.2219
 IR Inten    --    12.2518                 0.9445                 3.1647
 Raman Activ --     0.0000                 0.0000                 0.0000

                    13                     14                     15
                    A'                     A'                     A'
 Frequencies --  1448.6333              3315.5251              3690.7780
 Red. masses --     2.1027                 1.1011                 1.0854
 Frc consts  --     2.5998                 7.1317                 8.7111
 IR Inten    --    27.1919                 1.4207                95.2895
 Raman Activ --     0.0000                 0.0000                 0.0000

 - Thermochemistry -
 -------------------
 Temperature   298.150 Kelvin.  Pressure   1.00000 Atm.
 Atom  1 has atomic number  7 and mass  14.00307

 Molecular mass:    70.02795 amu.
 Principal axes and moments of inertia in atomic units:
                           1         2         3
     EIGENVALUES --   183.23813 187.06922 370.30736
           X            0.97109   0.23873   0.00000
           Y           -0.23873   0.97109   0.00000
           Z            0.00000   0.00000   1.00000
 THIS MOLECULE IS AN ASYMMETRIC TOP.
 ROTATIONAL SYMMETRY NUMBER  1.
 ROTATIONAL TEMPERATURES (KELVIN)      0.47268     0.46300     0.23390
 ROTATIONAL CONSTANTS (GHZ)            9.84916     9.64745     4.87363
 Zero-point vibrational energy     119643.3 (Joules/Mol)
                                   28.59545 (Kcal/Mol)
 VIBRATIONAL TEMPERATURES:    910.86   982.02  1026.04  1219.17  1263.58
          (KELVIN)           1367.54  1399.85  1444.77  1607.34  1688.52
                             1735.94  1969.08  2084.25  4770.27  5310.18

 Zero-point correction=                           0.045570 (Hartree/Particle)
 Thermal correction to Energy=                    0.049091
 Thermal correction to Enthalpy=                  0.050035
 Thermal correction to Gibbs Free Energy=         0.019370
 Sum of electronic and zero-point Energies=            -46.251253
 Sum of electronic and thermal Energies=               -46.247732
 Sum of electronic and thermal Enthalpies=             -46.246788
 Sum of electronic and thermal Free Energies=          -46.277453

                     E (Thermal)             CV                S
                      KCAL/MOL        CAL/MOL-KELVIN    CAL/MOL-KELVIN
 TOTAL                   30.805             11.809             64.540
 ELECTRONIC               0.000              0.000              0.000
 TRANSLATIONAL            0.889              2.981             38.656
 ROTATIONAL               0.889              2.981             24.055
 VIBRATIONAL             29.028              5.848              1.829
                       Q            LOG10(Q)             LN(Q)
 TOTAL BOT       0.123120D-08         -8.909671        -20.515276
 TOTAL V=0       0.112412D+13         12.050814         27.748025
 VIB (BOT)       0.132532D-20        -20.877678        -48.072631
 VIB (V=0)       0.121006D+01          0.082807          0.190670
 ELECTRONIC      0.100000D+01          0.000000          0.000000
 TRANSLATIONAL   0.230339D+08          7.362368         16.952478
 ROTATIONAL      0.403311D+05          4.605640         10.604877
 ***** Axes restored to original set *****
 -------------------------------------------------------------------
 Center     Atomic                   Forces (Hartrees/Bohr)
 Number     Number              X              Y              Z
 -------------------------------------------------------------------
    1          7           0.000110735    0.000230411    0.000000000
    2          7          -0.000481019   -0.000225716    0.000000000
    3          7           0.000446841   -0.000205713    0.000000000
    4          1          -0.000014254    0.000040036    0.000000000
    5          7          -0.000172389   -0.000094011    0.000000000
    6          6           0.000115846    0.000312373    0.000000000
    7          1          -0.000005759   -0.000057381    0.000000000
 -------------------------------------------------------------------
 Cartesian Forces:  Max     0.000481019 RMS     0.000188269

 GradGradGradGradGradGradGradGradGradGradGradGradGradGradGradGradGradGrad
 Berny optimization.
 Internal  Forces:  Max     0.000383566 RMS     0.000105802
 Search for a local minimum.
 Step number   1 out of a maximum of  36
 All quantities printed in internal units (Hartrees-Bohrs-Radians)
 Second derivative matrix not updated -- analytic derivatives used.
     Eigenvalues ---    0.01092   0.02629   0.06865   0.07359   0.09792
     Eigenvalues ---    0.10605   0.16836   0.19761   0.30739   0.36476
     Eigenvalues ---    0.38552   0.42192   0.48379   0.52098   0.58219
     Eigenvalues --- 1000.000001000.000001000.000001000.000001000.00000
     Eigenvalues --- 1000.000001000.000001000.000001000.000001000.00000
     Eigenvalues --- 1000.00000
 Angle between quadratic step and forces=  26.26 degrees.
 Linear search not attempted -- first point.
 Iteration  1 RMS(Cart)=  0.00039872 RMS(Int)=  0.00000018
 Iteration  2 RMS(Cart)=  0.00000016 RMS(Int)=  0.00000002
 Variable       Old X    -DE/DX   Delta X   Delta X   Delta X     New X
                                 (Linear)    (Quad)   (Total)
    R1        2.53550  -0.00026   0.00000  -0.00099  -0.00099   2.53452
    R2        2.69110  -0.00001   0.00000  -0.00012  -0.00012   2.69098
    R3        2.66281   0.00038   0.00000   0.00187   0.00187   2.66468
    R4        1.91944   0.00002   0.00000   0.00004   0.00004   1.91948
    R5        2.60260  -0.00016   0.00000  -0.00074  -0.00074   2.60185
    R6        2.55550   0.00019   0.00000   0.00061   0.00061   2.55612
    R7        2.04790   0.00002   0.00000   0.00005   0.00005   2.04795
    A1        1.93573   0.00004   0.00000   0.00049   0.00049   1.93622
    A2        1.83964   0.00002   0.00000  -0.00018  -0.00018   1.83946
    A3        2.09867  -0.00001   0.00000  -0.00037  -0.00037   2.09830
    A4        1.90098  -0.00006   0.00000  -0.00036  -0.00036   1.90062
    A5        2.28354   0.00006   0.00000   0.00072   0.00072   2.28426
    A6        1.84322   0.00002   0.00000  -0.00021  -0.00021   1.84301
    A7        1.90520  -0.00002   0.00000   0.00026   0.00026   1.90546
    A8        2.18839   0.00007   0.00000   0.00071   0.00071   2.18910
    A9        2.18959  -0.00004   0.00000  -0.00096  -0.00096   2.18863
    D1        0.00000   0.00000   0.00000   0.00000   0.00000   0.00000
    D2        0.00000   0.00000   0.00000   0.00000   0.00000   0.00000
    D3        3.14159   0.00000   0.00000   0.00000   0.00000   3.14159
    D4        0.00000   0.00000   0.00000   0.00000   0.00000   0.00000
    D5        0.00000   0.00000   0.00000   0.00000   0.00000   0.00000
    D6        3.14159   0.00000   0.00000   0.00000   0.00000   3.14159
    D7        3.14159   0.00000   0.00000   0.00000   0.00000   3.14159
    D8        0.00000   0.00000   0.00000   0.00000   0.00000   0.00000
    D9        0.00000   0.00000   0.00000   0.00000   0.00000   0.00000
   D10        3.14159   0.00000   0.00000   0.00000   0.00000   3.14159
         Item               Value     Threshold  Converged?
 Maximum Force            0.000384     0.000450     YES
 RMS     Force            0.000106     0.000300     YES
 Maximum Displacement     0.001069     0.001800     YES
 RMS     Displacement     0.000399     0.001200     YES
 Predicted change in Energy=-6.840537D-07
 Optimization completed.
    -- Stationary point found.
                         ----------------------------
                         !   Optimized Parameters   !
                         ! (Angstroms and Degrees)  !
 ------------------------                            -------------------------
 ! Name  Definition              Value          Derivative Info.             !
 -----------------------------------------------------------------------------
 ! R1    R(1,2)                  1.3417         -DE/DX =   -0.0003           !
 ! R2    R(1,5)                  1.4241         -DE/DX =    0.               !
 ! R3    R(2,3)                  1.4091         -DE/DX =    0.0004           !
 ! R4    R(3,4)                  1.0157         -DE/DX =    0.               !
 ! R5    R(3,6)                  1.3772         -DE/DX =   -0.0002           !
 ! R6    R(5,6)                  1.3523         -DE/DX =    0.0002           !
 ! R7    R(6,7)                  1.0837         -DE/DX =    0.               !
 ! A1    A(2,1,5)              110.9094         -DE/DX =    0.               !
 ! A2    A(1,2,3)              105.4035         -DE/DX =    0.               !
 ! A3    A(2,3,4)              120.2447         -DE/DX =    0.               !
 ! A4    A(2,3,6)              108.9182         -DE/DX =   -0.0001           !
 ! A5    A(4,3,6)              130.8371         -DE/DX =    0.0001           !
 ! A6    A(1,5,6)              105.609          -DE/DX =    0.               !
 ! A7    A(3,6,5)              109.1599         -DE/DX =    0.               !
 ! A8    A(3,6,7)              125.3858         -DE/DX =    0.0001           !
 ! A9    A(5,6,7)              125.4543         -DE/DX =    0.               !
 ! D1    D(5,1,2,3)              0.             -DE/DX =    0.               !
 ! D2    D(2,1,5,6)              0.             -DE/DX =    0.               !
 ! D3    D(1,2,3,4)            180.             -DE/DX =    0.               !
 ! D4    D(1,2,3,6)              0.             -DE/DX =    0.               !
 ! D5    D(2,3,6,5)              0.             -DE/DX =    0.               !
 ! D6    D(2,3,6,7)            180.             -DE/DX =    0.               !
 ! D7    D(4,3,6,5)            180.             -DE/DX =    0.               !
 ! D8    D(4,3,6,7)              0.             -DE/DX =    0.               !
 ! D9    D(1,5,6,3)              0.             -DE/DX =    0.               !
 ! D10   D(1,5,6,7)            180.             -DE/DX =    0.               !
 -----------------------------------------------------------------------------
 GradGradGradGradGradGradGradGradGradGradGradGradGradGradGradGradGradGrad

 1\1\GINC-INDIUM\Freq\RB3LYP\CEP-31G\C1H2N4\RDJ3\10-Sep-2000\0\\#N GEOM
 =ALLCHECK GUESS=TCHECK RB3LYP/CEP-31G FREQ\\1H tetrazole c CH-NH-N=N-N
 = casno=288948\\0,1\N,-1.2144906426,-0.2924935638,0.\N,-0.7382301111,0
 .9618663487,0.\N,0.6646447113,0.8295647744,0.\H,1.2563842859,1.6551161
 909,0.\N,-0.151234782,-1.2398328654,0.\C,0.9868712389,-0.5094441402,0.
 \H,1.9926848805,-0.9128630997,0.\\Version=IBM-RS6000-G98RevA.6\State=1
 -A'\HF=-46.2968231\RMSD=3.197e-10\RMSF=1.883e-04\Dipole=2.1834433,0.90
 13149,0.\DipoleDeriv=0.0953815,-0.1093279,0.0003162,-0.1974949,0.03917
 78,-0.0003317,0.0000414,0.0002678,-0.1811421,0.3434144,0.1748198,0.000
 0109,0.2043601,-0.2827775,-0.0001341,0.0001228,-0.0004517,-0.078564,-0
 .44826,-0.2903564,0.0001011,-0.2316895,-0.309136,0.0001032,-0.000036,0
 .0005205,-0.2280033,0.2168799,0.0401147,-0.0000707,0.0340232,0.2576609
 ,-0.0000818,-0.0000126,-0.0000317,0.4118641,-0.3949093,0.1696461,0.000
 053,-0.0029589,-0.2093469,0.0006668,-0.0000807,-0.000326,-0.1864537,0.
 1343268,-0.0077297,-0.0003845,0.1771123,0.3608936,-0.0002436,0.0000213
 ,0.0002264,0.0382514,0.053167,0.0228336,-0.0000259,0.0166475,0.1435278
 ,0.0000212,-0.0000561,-0.0002054,0.2240476\Polar=41.0600059,0.1888642,
 39.8560721,-0.0021531,0.0096647,16.3515597\PG=CS [SG(C1H2N4)]\NImag=0\
 \0.45700371,0.08121907,0.37522011,-0.00001014,0.00001002,0.10582168,-0
 .10583402,-0.09112413,0.00000402,0.34169973,-0.02443113,-0.25386408,0.
 00000197,-0.03378002,0.50777906,0.00001462,-0.00002054,-0.08159925,-0.
 00000316,-0.00000139,0.09761188,-0.10482667,-0.08887462,-0.00000721,-0
 .16423589,0.01070564,0.00001634,0.59330977,-0.02723428,-0.05511000,-0.
 00000420,0.04242017,-0.10761448,0.00000613,0.22587098,0.87641400,-0.00
 001903,0.00002309,0.02127063,0.00000499,0.00000126,-0.06220455,-0.0000
 1565,-0.00000967,0.10069201,-0.01036679,-0.00042464,0.00000358,-0.0023
 5919,-0.03178849,-0.00000834,-0.20318610,-0.19104814,0.00000944,0.2026
 3101,0.00916875,0.00150904,0.00000436,0.00635864,0.01191504,-0.0000111
 4,-0.19647416,-0.34395100,0.00001176,0.20073172,0.33834816,0.00000128,
 -0.00000217,0.00695594,-0.00000031,0.00000031,-0.00851515,0.00000065,0
 .00000076,-0.01589808,-0.00000075,-0.00000064,0.01736374,-0.12420332,0
 .04742841,0.00000136,-0.01065540,0.07511123,-0.00001012,0.00291804,-0.
 10120485,0.00000555,-0.00108168,-0.00029709,0.00000202,0.40550297,-0.0
 0292740,-0.08785705,-0.00001726,-0.01528881,-0.10736918,0.00002224,-0.
 00239684,-0.08483031,-0.00003173,0.00839815,-0.00427397,0.00000494,0.0
 9885202,0.44095873,0.00001830,-0.00001518,-0.07784677,-0.00001171,-0.0
 0000338,0.03002020,0.00001650,0.00000505,0.01940425,-0.00000557,-0.000
 00795,0.00746470,-0.00001579,0.00001936,0.09742926,-0.11051112,0.05255
 708,0.00000631,-0.05880855,0.00799213,-0.00000684,-0.12930968,0.058178
 86,0.00001187,0.01436726,-0.01992565,-0.00000261,-0.26083902,-0.099311
 93,-0.00000010,0.87538814,-0.03009725,0.02120967,0.00000459,0.09359910
 ,-0.04532811,0.00000589,0.01954086,-0.27865484,0.00000413,0.01442259,-
 0.00335695,-0.00000338,-0.10135319,-0.16840296,0.00000300,-0.11075653,
 0.56983336,-0.00001343,0.00001068,0.01694041,0.00000859,0.00000399,0.0
 1932533,-0.00001309,-0.00000160,-0.06139602,0.00000344,0.00000540,-0.0
 0675830,0.00001561,-0.00001210,-0.07214218,-0.00000178,-0.00000698,0.1
 3340854,-0.00126178,-0.00078116,0.00000209,0.00019332,-0.00380936,-0.0
 0000251,0.00533052,-0.00698276,0.00000284,-0.00000452,0.00043779,-0.00
 000028,-0.01164159,0.01267481,-0.00000163,-0.33028704,0.11464442,0.000
 00066,0.33767109,-0.00569776,-0.00110769,0.00000051,-0.00218494,-0.005
 51824,-0.00000119,0.03162813,-0.00625337,0.00000115,-0.00029118,-0.000
 19032,0.00000019,-0.01853655,0.01177473,-0.00000091,0.11126604,-0.0953
 0014,0.00000061,-0.11618374,0.09659502,0.00000840,-0.00000591,0.008457
 37,-0.00000243,-0.00000277,0.00536153,0.00000247,0.00000352,-0.0018682
 5,-0.00000180,-0.00000179,-0.00061285,0.00000136,0.00001455,-0.0043294
 7,-0.00000684,-0.00000724,-0.02937778,-0.00000117,-0.00000035,0.022369
 45\\-0.00011073,-0.00023041,0.,0.00048102,0.00022572,0.,-0.00044684,0.
 00020571,0.,0.00001425,-0.00004004,0.,0.00017239,0.00009401,0.,-0.0001
 1585,-0.00031237,0.,0.00000576,0.00005738,0.\\\@

 IF YOU DON'T HAVE THE LAW - ARGUE THE FACTS.
 IF YOU DON'T HAVE THE FACTS - ARGUE THE LAW.
 IF YOU DON'T HAVE EITHER - POUND THE TABLE.
 Job cpu time:  0 days  0 hours  1 minutes 48.9 seconds.
 File lengths (MBytes):  RWF=   12 Int=    0 D2E=    0 Chk=    8 Scr=    1
 Normal termination of Gaussian 98.
