 Gaussian 98, Revision A.6,
 Gaussian 98:  IBM-RS6000-G98RevA.6 19-Oct-1998

 -------------------------
 #B3LYP/CEP-121G* opt freq
 -------------------------

 ----------------------------------------
 1H tetrazole c CH-NH-N=N-N= casno=288948
 ----------------------------------------
 Symbolic Z-matrix:
 Charge =  0 Multiplicity = 1

 SCF Done:  E(RB+HF-LYP) =  -46.4054435659     A.U. after   17 cycles
 SCF Done:  E(RB+HF-LYP) =  -46.4133910395     A.U. after   14 cycles
 SCF Done:  E(RB+HF-LYP) =  -46.4135138954     A.U. after   11 cycles
 SCF Done:  E(RB+HF-LYP) =  -46.4135428462     A.U. after   10 cycles
 SCF Done:  E(RB+HF-LYP) =  -46.4135498659     A.U. after    9 cycles
 Optimization completed.
    -- Stationary point found.
 Normal termination of Gaussian 98.

 -----------------------------------------------------
 #N Geom=AllCheck Guess=TCheck RB3LYP/CEP-121G(d) Freq
 -----------------------------------------------------

 1H tetrazole c CH-NH-N=N-N= casno=288948
 ----------------------------------------
 Redundant internal coordinates taken from checkpointfile:
 /wrk/rdj3/Gau-18058.chk
 Charge =  0 Multiplicity = 1

                         Standard orientation:
 ---------------------------------------------------------------------
 Center     Atomic     Atomic              Coordinates (Angstroms)
 Number     Number      Type              X           Y           Z
 ---------------------------------------------------------------------
    1          7             0       -0.749586   -0.953758    0.000000
    2          7             0       -1.140892    0.287075    0.000000
    3          7             0        0.000000    1.038801    0.000000
    4          1             0       -0.053644    2.051692    0.000000
    5          7             0        0.626302   -1.046271    0.000000
    6          6             0        1.067933    0.200269    0.000000
    7          1             0        2.102797    0.517998    0.000000
 ---------------------------------------------------------------------

 SCF Done:  E(RB+HF-LYP) =  -46.4135498659     A.U. after    1 cycles

  The electronic state is 1-A'.
 Alpha  occ. eigenvalues --   -1.14857  -0.95521  -0.90637  -0.68929  -0.67176
 Alpha  occ. eigenvalues --   -0.60385  -0.50772  -0.49954  -0.38916  -0.33822
 Alpha  occ. eigenvalues --   -0.31755  -0.31454  -0.30358
 Alpha virt. eigenvalues --   -0.03343   0.00307   0.00866   0.05334   0.13230
 Alpha virt. eigenvalues --    0.14819   0.15457   0.23217   0.27463   0.29225
 Alpha virt. eigenvalues --    0.35578   0.35687   0.41317   0.43101   0.45396

  Exact polarizability:  41.376   0.993  40.718  -0.003   0.012  20.031
 Approx polarizability:  70.265   0.433  74.365   0.000   0.000  30.243

                     1                      2                      3
                    A"                     A"                     A"
 Frequencies --   553.4661               679.1475               718.8665
 Red. masses --     1.8128                 1.9773                 7.9265
 Frc consts  --     0.3272                 0.5374                 2.4134
 IR Inten    --    84.4556                 9.8351                 8.8309
 Raman Activ --     0.0000                 0.0000                 0.0000

                     4                      5                      6
                    A"                     A'                     A'
 Frequencies --   835.6063               949.4462               993.1213
 Red. masses --     1.3404                 5.2669                 6.1172
 Frc consts  --     0.5514                 2.7973                 3.5548
 IR Inten    --    26.8852                 3.7338                 0.2359
 Raman Activ --     0.0000                 0.0000                 0.0000

                     7                      8                      9
                    A'                     A'                     A'
 Frequencies --  1023.2735              1047.6568              1129.7287
 Red. masses --     4.5898                 3.6872                 1.9907
 Frc consts  --     2.8316                 2.3844                 1.4969
 IR Inten    --    18.8083                27.4229                19.6788
 Raman Activ --     0.0000                 0.0000                 0.0000

                    10                     11                     12
                    A'                     A'                     A'
 Frequencies --  1248.9722              1276.4530              1432.6601
 Red. masses --     2.4475                 9.4384                 3.0711
 Frc consts  --     2.2495                 9.0606                 3.7139
 IR Inten    --     0.7948                18.3223                 9.0948
 Raman Activ --     0.0000                 0.0000                 0.0000

                    13                     14                     15
                    A'                     A'                     A'
 Frequencies --  1490.0415              3268.4870              3630.3612
 Red. masses --     3.0417                 1.1003                 1.0837
 Frc consts  --     3.9789                 6.9257                 8.4153
 IR Inten    --    17.3630                 0.1066                68.2483
 Raman Activ --     0.0000                 0.0000                 0.0000

 - Thermochemistry -
 -------------------
 Temperature   298.150 Kelvin.  Pressure   1.00000 Atm.
 Atom  1 has atomic number  7 and mass  14.00307

 Molecular mass:    70.02795 amu.
 Principal axes and moments of inertia in atomic units:
                           1         2         3
     EIGENVALUES --   174.47107 177.85866 352.32973
           X            0.89632   0.44340   0.00000
           Y           -0.44340   0.89632   0.00000
           Z            0.00000   0.00000   1.00000
 THIS MOLECULE IS AN ASYMMETRIC TOP.
 ROTATIONAL SYMMETRY NUMBER  1.
 ROTATIONAL TEMPERATURES (KELVIN)      0.49643     0.48698     0.24583
 ROTATIONAL CONSTANTS (GHZ)           10.34407    10.14705     5.12231
 Zero-point vibrational energy     121285.1 (Joules/Mol)
                                   28.98784 (Kcal/Mol)
 WARNING-- EXPLICIT CONSIDERATION OF   1 DEGREES OF FREEDOM AS
           VIBRATIONS MAY CAUSE SIGNIFICANT ERROR
 VIBRATIONAL TEMPERATURES:    796.31   977.14  1034.28  1202.24  1366.03
          (KELVIN)           1428.87  1472.25  1507.34  1625.42  1796.98
                             1836.52  2061.27  2143.83  4702.60  5223.25

 Zero-point correction=                           0.046195 (Hartree/Particle)
 Thermal correction to Energy=                    0.049717
 Thermal correction to Enthalpy=                  0.050661
 Thermal correction to Gibbs Free Energy=         0.020055
 Sum of electronic and zero-point Energies=            -46.367355
 Sum of electronic and thermal Energies=               -46.363833
 Sum of electronic and thermal Enthalpies=             -46.362888
 Sum of electronic and thermal Free Energies=          -46.393495

                     E (Thermal)             CV                S
                      KCAL/MOL        CAL/MOL-KELVIN    CAL/MOL-KELVIN
 TOTAL                   31.198             11.615             64.417
 ELECTRONIC               0.000              0.000              0.000
 TRANSLATIONAL            0.889              2.981             38.656
 ROTATIONAL               0.889              2.981             23.907
 VIBRATIONAL             29.421              5.653              1.854
 VIBRATION  1             0.909              1.132              0.537
                       Q            LOG10(Q)             LN(Q)
 TOTAL BOT       0.596233D-09         -9.224584        -21.240389
 TOTAL V=0       0.105567D+13         12.023528         27.685196
 VIB (BOT)       0.691553D-21        -21.160175        -48.723103
 VIB (BOT)  1    0.282603D+00         -0.548824         -1.263713
 VIB (V=0)       0.122444D+01          0.087937          0.202482
 VIB (V=0)  1    0.107434D+01          0.031141          0.071705
 ELECTRONIC      0.100000D+01          0.000000          0.000000
 TRANSLATIONAL   0.230339D+08          7.362368         16.952478
 ROTATIONAL      0.374303D+05          4.573223         10.530236
 ***** Axes restored to original set *****
 -------------------------------------------------------------------
 Center     Atomic                   Forces (Hartrees/Bohr)
 Number     Number              X              Y              Z
 -------------------------------------------------------------------
    1          7           0.000270512   -0.000218120    0.000000000
    2          7          -0.000116369    0.000091050    0.000000000
    3          7           0.000109879   -0.000390764    0.000000000
    4          1          -0.000013765   -0.000008328    0.000000000
    5          7          -0.000268237    0.000197787    0.000000000
    6          6           0.000013948    0.000379122    0.000000000
    7          1           0.000004032   -0.000050747    0.000000000
 -------------------------------------------------------------------
 Cartesian Forces:  Max     0.000390764 RMS     0.000164056

 GradGradGradGradGradGradGradGradGradGradGradGradGradGradGradGradGradGrad
 Berny optimization.
 Internal  Forces:  Max     0.000317821 RMS     0.000092343
 Search for a local minimum.
 Step number   1 out of a maximum of  36
 All quantities printed in internal units (Hartrees-Bohrs-Radians)
 Second derivative matrix not updated -- analytic derivatives used.
     Eigenvalues ---    0.00752   0.02437   0.06941   0.07547   0.10015
     Eigenvalues ---    0.10403   0.19106   0.23403   0.33369   0.37256
     Eigenvalues ---    0.42095   0.45378   0.47033   0.55514   0.60988
     Eigenvalues --- 1000.000001000.000001000.000001000.000001000.00000
     Eigenvalues --- 1000.000001000.000001000.000001000.000001000.00000
     Eigenvalues --- 1000.00000
 Angle between quadratic step and forces=  23.13 degrees.
 Linear search not attempted -- first point.
 Iteration  1 RMS(Cart)=  0.00027204 RMS(Int)=  0.00000008
 Iteration  2 RMS(Cart)=  0.00000007 RMS(Int)=  0.00000001
 Variable       Old X    -DE/DX   Delta X   Delta X   Delta X     New X
                                 (Linear)    (Quad)   (Total)
    R1        2.45867  -0.00001   0.00000   0.00025   0.00025   2.45892
    R2        2.60592  -0.00030   0.00000  -0.00135  -0.00135   2.60458
    R3        2.58190   0.00008   0.00000   0.00041   0.00041   2.58231
    R4        1.91677  -0.00002   0.00000  -0.00003  -0.00003   1.91674
    R5        2.56587  -0.00032   0.00000  -0.00098  -0.00098   2.56489
    R6        2.49909   0.00004   0.00000   0.00045   0.00045   2.49954
    R7        2.04571   0.00002   0.00000   0.00005   0.00005   2.04575
    A1        1.94342   0.00003   0.00000   0.00027   0.00027   1.94369
    A2        1.84791  -0.00010   0.00000  -0.00051  -0.00051   1.84740
    A3        2.10049  -0.00003   0.00000  -0.00025  -0.00025   2.10024
    A4        1.89335   0.00005   0.00000   0.00024   0.00024   1.89359
    A5        2.28935  -0.00001   0.00000   0.00001   0.00001   2.28936
    A6        1.84415   0.00004   0.00000   0.00017   0.00017   1.84431
    A7        1.89595  -0.00002   0.00000  -0.00018  -0.00018   1.89578
    A8        2.17806   0.00005   0.00000   0.00068   0.00068   2.17873
    A9        2.20917  -0.00003   0.00000  -0.00050  -0.00050   2.20867
    D1        0.00000   0.00000   0.00000   0.00000   0.00000   0.00000
    D2        0.00000   0.00000   0.00000   0.00000   0.00000   0.00000
    D3        3.14159   0.00000   0.00000   0.00000   0.00000   3.14159
    D4        0.00000   0.00000   0.00000   0.00000   0.00000   0.00000
    D5        0.00000   0.00000   0.00000   0.00000   0.00000   0.00000
    D6        3.14159   0.00000   0.00000   0.00000   0.00000   3.14159
    D7        3.14159   0.00000   0.00000   0.00000   0.00000   3.14159
    D8        0.00000   0.00000   0.00000   0.00000   0.00000   0.00000
    D9        0.00000   0.00000   0.00000   0.00000   0.00000   0.00000
   D10        3.14159   0.00000   0.00000   0.00000   0.00000   3.14159
         Item               Value     Threshold  Converged?
 Maximum Force            0.000318     0.000450     YES
 RMS     Force            0.000092     0.000300     YES
 Maximum Displacement     0.000718     0.001800     YES
 RMS     Displacement     0.000272     0.001200     YES
 Predicted change in Energy=-4.560749D-07
 Optimization completed.
    -- Stationary point found.
                         ----------------------------
                         !   Optimized Parameters   !
                         ! (Angstroms and Degrees)  !
 ------------------------                            -------------------------
 ! Name  Definition              Value          Derivative Info.             !
 -----------------------------------------------------------------------------
 ! R1    R(1,2)                  1.3011         -DE/DX =    0.               !
 ! R2    R(1,5)                  1.379          -DE/DX =   -0.0003           !
 ! R3    R(2,3)                  1.3663         -DE/DX =    0.0001           !
 ! R4    R(3,4)                  1.0143         -DE/DX =    0.               !
 ! R5    R(3,6)                  1.3578         -DE/DX =   -0.0003           !
 ! R6    R(5,6)                  1.3225         -DE/DX =    0.               !
 ! R7    R(6,7)                  1.0825         -DE/DX =    0.               !
 ! A1    A(2,1,5)              111.3498         -DE/DX =    0.               !
 ! A2    A(1,2,3)              105.8776         -DE/DX =   -0.0001           !
 ! A3    A(2,3,4)              120.349          -DE/DX =    0.               !
 ! A4    A(2,3,6)              108.4807         -DE/DX =    0.               !
 ! A5    A(4,3,6)              131.1703         -DE/DX =    0.               !
 ! A6    A(1,5,6)              105.6618         -DE/DX =    0.               !
 ! A7    A(3,6,5)              108.6302         -DE/DX =    0.               !
 ! A8    A(3,6,7)              124.7935         -DE/DX =    0.0001           !
 ! A9    A(5,6,7)              126.5763         -DE/DX =    0.               !
 ! D1    D(5,1,2,3)              0.             -DE/DX =    0.               !
 ! D2    D(2,1,5,6)              0.             -DE/DX =    0.               !
 ! D3    D(1,2,3,4)            180.             -DE/DX =    0.               !
 ! D4    D(1,2,3,6)              0.             -DE/DX =    0.               !
 ! D5    D(2,3,6,5)              0.             -DE/DX =    0.               !
 ! D6    D(2,3,6,7)            180.             -DE/DX =    0.               !
 ! D7    D(4,3,6,5)            180.             -DE/DX =    0.               !
 ! D8    D(4,3,6,7)              0.             -DE/DX =    0.               !
 ! D9    D(1,5,6,3)              0.             -DE/DX =    0.               !
 ! D10   D(1,5,6,7)            180.             -DE/DX =    0.               !
 -----------------------------------------------------------------------------
 GradGradGradGradGradGradGradGradGradGradGradGradGradGradGradGradGradGrad

 1\1\GINC-INDIUM\Freq\RB3LYP\CEP-121G(d)\C1H2N4\RDJ3\18-Oct-2000\0\\#N
 GEOM=ALLCHECK GUESS=TCHECK RB3LYP/CEP-121G(D) FREQ\\1H tetrazole c CH-
 NH-N=N-N= casno=288948\\0,1\N,-1.1799004106,-0.2817241646,0.\N,-0.7156
 9457,0.9337174515,0.\N,0.6453354461,0.8140327598,0.\H,1.2325380475,1.6
 410875786,0.\N,-0.1591891095,-1.2089647085,0.\C,0.961274904,-0.5064970
 617,0.\H,1.9696055562,-0.9004060225,0.\\Version=IBM-RS6000-G98RevA.6\S
 tate=1-A'\HF=-46.4135499\RMSD=1.642e-09\RMSF=1.641e-04\Dipole=1.954021
 6,0.8522845,0.\DipoleDeriv=-0.0406041,-0.166034,0.0003613,-0.2229602,0
 .1126958,-0.0001769,-0.0003567,0.0009638,-0.1528994,0.2887468,0.271011
 8,-0.0001138,0.2425658,-0.341584,-0.0003271,0.0002229,-0.0005549,-0.09
 832,-0.355571,-0.2827865,-0.0000134,-0.2006554,-0.2231962,0.0000982,0.
 0001397,0.0004505,-0.1372579,0.1987605,0.0280804,0.0000895,0.0096472,0
 .2302429,0.0001314,-0.0001484,-0.000207,0.3462498,-0.3569324,0.1356984
 ,-0.0002038,-0.0001944,-0.34848,0.0005014,0.0007242,-0.0007911,-0.1954
 163,0.2371407,-0.0048661,-0.0002814,0.1516062,0.4582008,-0.0000767,-0.
 0003885,0.0005885,0.0530759,0.0284593,0.0188962,0.0001616,0.019991,0.1
 121205,-0.0001502,-0.0001933,-0.0004498,0.1845678\Polar=42.0885555,-0.
 0935931,40.0058265,0.0056243,0.0113424,20.0306257\PG=CS [SG(C1H2N4)]\N
 Imag=0\\0.52794532,0.09253400,0.45850084,0.00000364,0.00003793,0.11765
 738,-0.13523222,-0.10473668,0.00001902,0.40570899,-0.04778507,-0.31034
 344,-0.00001837,-0.03226336,0.58468576,-0.00000063,-0.00002504,-0.0911
 6544,-0.00001265,0.00001436,0.10742729,-0.10810658,-0.10475496,-0.0000
 2818,-0.20154453,0.02335121,0.00001767,0.63133557,-0.03123912,-0.06010
 664,-0.00001084,0.05650292,-0.11622483,0.00000471,0.19875304,0.8910126
 1,-0.00000970,0.00001111,0.02420552,0.00001310,0.00000635,-0.06249968,
 -0.00000755,-0.00001024,0.08274615,-0.01107846,-0.00157754,-0.00000184
 ,-0.00392505,-0.03138757,0.00000211,-0.19372388,-0.17633736,-0.0000028
 4,0.19446439,0.00795264,0.00118768,-0.00000121,0.00141242,0.01215967,0
 .00000166,-0.18373616,-0.33416356,-0.00000453,0.19399583,0.32990567,0.
 00000549,-0.00000058,0.00774223,-0.00000631,-0.00001035,-0.01213471,0.
 00000137,0.00000719,-0.00538766,0.00000098,0.00000230,0.01296022,-0.15
 550617,0.05409811,-0.00001461,-0.00084769,0.08577204,0.00000728,-0.001
 44947,-0.10921259,0.00000015,-0.00054417,-0.00120005,-0.00000144,0.460
 62984,0.01805531,-0.11896824,-0.00002849,-0.01763556,-0.11584700,0.000
 01718,0.00184670,-0.07996273,-0.00002204,0.00895943,-0.00600566,0.0000
 1076,0.10233954,0.50208647,-0.00001634,-0.00003721,-0.08524623,-0.0000
 0954,0.00002843,0.03333960,0.00002828,0.00000225,0.02005070,-0.0000009
 8,-0.00000433,0.00733061,0.00001975,0.00001290,0.10433577,-0.11518606,
 0.06464645,0.00001243,-0.06391320,0.00628258,-0.00000784,-0.13173321,0
 .06456573,0.00000714,0.01520246,-0.01897812,-0.00000145,-0.28763853,-0
 .12417388,-0.00000800,0.90117420,-0.03342559,0.03135389,0.00002411,0.0
 9755871,-0.04852592,-0.00001485,0.03316526,-0.29554164,0.00001736,0.00
 648363,-0.00267914,-0.00000746,-0.11525029,-0.19568438,-0.00000798,-0.
 09510602,0.60675136,0.00000371,0.00002903,0.01794432,0.00001254,-0.000
 01947,0.01921356,-0.00002055,-0.00000431,-0.05618615,-0.00000147,-0.00
 000010,-0.00981771,-0.00001188,-0.00001763,-0.07459017,0.00000927,0.00
 001583,0.13125659,-0.00283585,-0.00020939,0.00000952,-0.00024629,-0.00
 396983,-0.00000594,0.00522209,-0.00303263,-0.00000029,-0.00039530,0.00
 055345,0.00000136,-0.01464381,0.01060845,-0.00001316,-0.31790567,0.106
 57430,0.00000839,0.33080483,-0.00609218,-0.00162410,-0.00000312,-0.000
 83845,-0.00590423,0.00000198,0.03137490,-0.00501320,0.00000199,-0.0001
 3642,-0.00040466,-0.00000185,-0.01654677,0.01438154,0.00000594,0.10276
 325,-0.09567416,-0.00000335,-0.11052435,0.09423880,0.00001384,-0.00001
 524,0.00886222,-0.00001617,-0.00000095,0.00581938,0.00000897,0.0000112
 4,-0.00292887,0.00000405,0.00000621,-0.00069297,0.00000074,0.00002734,
 -0.00522027,-0.00001157,-0.00002700,-0.02782043,0.00000014,-0.00000159
 ,0.02198094\\-0.00027051,0.00021812,0.,0.00011637,-0.00009105,0.,-0.00
 010988,0.00039076,0.,0.00001376,0.00000833,0.,0.00026824,-0.00019779,0
 .,-0.00001395,-0.00037912,0.,-0.00000403,0.00005075,0.\\\@

 AND HERE I AM, FOR ALL MY LORE,
 THE WRETCHED FOOL I WAS BEFORE.
 CALLED MASTER OF ARTS, AND DOCTOR TO BOOT,
 FOR TEN YEARS ALMOST I CONFUTE
 AND UP AND DOWN, WHEREVER IT GOES
 I DRAG MY STUDENTS BY THE NOSE --
 AND SEE THAT FOR ALL OUR SCIENCE AND ART
 WE CAN KNOW NOTHING.  IT BURNS MY HEART.

                                       -- FAUST
 Job cpu time:  0 days  0 hours  8 minutes  2.5 seconds.
 File lengths (MBytes):  RWF=   17 Int=    0 D2E=    0 Chk=    8 Scr=    1
 Normal termination of Gaussian 98.
