 Gaussian 98, Revision A.6,
 Gaussian 98:  IBM-RS6000-G98RevA.6 19-Oct-1998

 ------------------------
 #B3LYP/CEP-31G* opt freq
 ------------------------

 ----------------------------------------
 1H tetrazole c CH-NH-N=N-N= casno=288948
 ----------------------------------------
 Symbolic Z-matrix:
 Charge =  0 Multiplicity = 1

 SCF Done:  E(RB+HF-LYP) =  -46.3933314169     A.U. after   15 cycles
 SCF Done:  E(RB+HF-LYP) =  -46.4034608059     A.U. after   14 cycles
 SCF Done:  E(RB+HF-LYP) =  -46.4035680052     A.U. after   13 cycles
 SCF Done:  E(RB+HF-LYP) =  -46.4036135208     A.U. after   10 cycles
 SCF Done:  E(RB+HF-LYP) =  -46.4036172418     A.U. after    9 cycles
 Optimization completed.
    -- Stationary point found.
 Normal termination of Gaussian 98.

 ----------------------------------------------------
 #N Geom=AllCheck Guess=TCheck RB3LYP/CEP-31G(d) Freq
 ----------------------------------------------------

 1H tetrazole c CH-NH-N=N-N= casno=288948
 ----------------------------------------
 Redundant internal coordinates taken from checkpointfile:
 /wrk/rdj3/Gau-15764.chk
 Charge =  0 Multiplicity = 1

                         Standard orientation:
 ---------------------------------------------------------------------
 Center     Atomic     Atomic              Coordinates (Angstroms)
 Number     Number      Type              X           Y           Z
 ---------------------------------------------------------------------
    1          7             0       -0.749920   -0.957238    0.000000
    2          7             0       -1.143170    0.289532    0.000000
    3          7             0        0.000000    1.042110    0.000000
    4          1             0       -0.056690    2.059492    0.000000
    5          7             0        0.627123   -1.050732    0.000000
    6          6             0        1.069098    0.200798    0.000000
    7          1             0        2.110133    0.518957    0.000000
 ---------------------------------------------------------------------

 SCF Done:  E(RB+HF-LYP) =  -46.4036172418     A.U. after    1 cycles

  The electronic state is 1-A'.
 Alpha  occ. eigenvalues --   -1.14309  -0.95266  -0.90178  -0.68651  -0.66815
 Alpha  occ. eigenvalues --   -0.60006  -0.50372  -0.49660  -0.38628  -0.33682
 Alpha  occ. eigenvalues --   -0.31488  -0.31283  -0.30118
 Alpha virt. eigenvalues --   -0.03344   0.00320   0.05836   0.11555   0.13773
 Alpha virt. eigenvalues --    0.15360   0.23267   0.25608   0.28123   0.30675
 Alpha virt. eigenvalues --    0.32619   0.45461   0.45981   0.46243   0.48738

  Exact polarizability:  39.921   0.442  39.610  -0.006   0.000  17.765
 Approx polarizability:  68.981  -0.180  73.435   0.000   0.000  26.429

                     1                      2                      3
                    A"                     A"                     A"
 Frequencies --   569.6224               675.6244               714.1381
 Red. masses --     1.8824                 1.9160                 7.5309
 Frc consts  --     0.3599                 0.5153                 2.2629
 IR Inten    --    87.0823                11.6298                 9.8528
 Raman Activ --     0.0000                 0.0000                 0.0000

                     4                      5                      6
                    A"                     A'                     A'
 Frequencies --   846.0686               950.1340               988.0937
 Red. masses --     1.3454                 4.7724                 6.4482
 Frc consts  --     0.5674                 2.5384                 3.7093
 IR Inten    --    31.8771                 3.2828                 0.4916
 Raman Activ --     0.0000                 0.0000                 0.0000

                     7                      8                      9
                    A'                     A'                     A'
 Frequencies --  1035.0189              1059.7785              1131.6047
 Red. masses --     3.6851                 4.7466                 1.8079
 Frc consts  --     2.3260                 3.1410                 1.3640
 IR Inten    --    21.9296                25.6042                17.8964
 Raman Activ --     0.0000                 0.0000                 0.0000

                    10                     11                     12
                    A'                     A'                     A'
 Frequencies --  1254.9689              1293.6443              1435.5730
 Red. masses --     2.4279                 9.3796                 3.1626
 Frc consts  --     2.2529                 9.2483                 3.8402
 IR Inten    --     0.7005                22.3710                 7.4027
 Raman Activ --     0.0000                 0.0000                 0.0000

                    13                     14                     15
                    A'                     A'                     A'
 Frequencies --  1496.3627              3279.7830              3646.0393
 Red. masses --     3.5805                 1.1003                 1.0840
 Frc consts  --     4.7235                 6.9735                 8.4906
 IR Inten    --    16.7923                 0.2028                82.6826
 Raman Activ --     0.0000                 0.0000                 0.0000

 - Thermochemistry -
 -------------------
 Temperature   298.150 Kelvin.  Pressure   1.00000 Atm.
 Atom  1 has atomic number  7 and mass  14.00307

 Molecular mass:    70.02795 amu.
 Principal axes and moments of inertia in atomic units:
                           1         2         3
     EIGENVALUES --   175.45441 178.76576 354.22017
           X            0.83197   0.55482   0.00000
           Y           -0.55482   0.83197   0.00000
           Z            0.00000   0.00000   1.00000
 THIS MOLECULE IS AN ASYMMETRIC TOP.
 ROTATIONAL SYMMETRY NUMBER  1.
 ROTATIONAL TEMPERATURES (KELVIN)      0.49365     0.48451     0.24452
 ROTATIONAL CONSTANTS (GHZ)           10.28610    10.09556     5.09497
 Zero-point vibrational energy     121878.3 (Joules/Mol)
                                   29.12961 (Kcal/Mol)
 WARNING-- EXPLICIT CONSIDERATION OF   1 DEGREES OF FREEDOM AS
           VIBRATIONS MAY CAUSE SIGNIFICANT ERROR
 VIBRATIONAL TEMPERATURES:    819.55   972.07  1027.48  1217.30  1367.02
          (KELVIN)           1421.64  1489.15  1524.78  1628.12  1805.61
                             1861.25  2065.46  2152.92  4718.85  5245.81

 Zero-point correction=                           0.046421 (Hartree/Particle)
 Thermal correction to Energy=                    0.049930
 Thermal correction to Enthalpy=                  0.050874
 Thermal correction to Gibbs Free Energy=         0.020279
 Sum of electronic and zero-point Energies=            -46.357196
 Sum of electronic and thermal Energies=               -46.353687
 Sum of electronic and thermal Enthalpies=             -46.352743
 Sum of electronic and thermal Free Energies=          -46.383338

                     E (Thermal)             CV                S
                      KCAL/MOL        CAL/MOL-KELVIN    CAL/MOL-KELVIN
 TOTAL                   31.332             11.544             64.393
 ELECTRONIC               0.000              0.000              0.000
 TRANSLATIONAL            0.889              2.981             38.656
 ROTATIONAL               0.889              2.981             23.923
 VIBRATIONAL             29.554              5.582              1.814
 VIBRATION  1             0.926              1.097              0.505
                       Q            LOG10(Q)             LN(Q)
 TOTAL BOT       0.470338D-09         -9.327590        -21.477570
 TOTAL V=0       0.105788D+13         12.024436         27.687287
 VIB (BOT)       0.541168D-21        -21.266668        -48.968312
 VIB (BOT)  1    0.270291D+00         -0.568168         -1.308255
 VIB (V=0)       0.121719D+01          0.085358          0.196545
 VIB (V=0)  1    0.106838D+01          0.028726          0.066145
 ELECTRONIC      0.100000D+01          0.000000          0.000000
 TRANSLATIONAL   0.230339D+08          7.362368         16.952478
 ROTATIONAL      0.377320D+05          4.576710         10.538265
 ***** Axes restored to original set *****
 -------------------------------------------------------------------
 Center     Atomic                   Forces (Hartrees/Bohr)
 Number     Number              X              Y              Z
 -------------------------------------------------------------------
    1          7           0.000235020   -0.000167601    0.000000000
    2          7          -0.000182464    0.000028531    0.000000000
    3          7           0.000025321   -0.000461548    0.000000000
    4          1          -0.000018454   -0.000019542    0.000000000
    5          7          -0.000298044    0.000385766    0.000000000
    6          6           0.000217845    0.000290579    0.000000000
    7          1           0.000020777   -0.000056186    0.000000000
 -------------------------------------------------------------------
 Cartesian Forces:  Max     0.000461548 RMS     0.000183218

 GradGradGradGradGradGradGradGradGradGradGradGradGradGradGradGradGradGrad
 Berny optimization.
 Internal  Forces:  Max     0.000319093 RMS     0.000116340
 Search for a local minimum.
 Step number   1 out of a maximum of  36
 All quantities printed in internal units (Hartrees-Bohrs-Radians)
 Second derivative matrix not updated -- analytic derivatives used.
     Eigenvalues ---    0.00800   0.02523   0.06926   0.07490   0.09952
     Eigenvalues ---    0.10387   0.19836   0.24320   0.33996   0.37558
     Eigenvalues ---    0.42811   0.45734   0.47414   0.55837   0.61235
     Eigenvalues --- 1000.000001000.000001000.000001000.000001000.00000
     Eigenvalues --- 1000.000001000.000001000.000001000.000001000.00000
     Eigenvalues --- 1000.00000
 Angle between quadratic step and forces=  26.37 degrees.
 Linear search not attempted -- first point.
 Iteration  1 RMS(Cart)=  0.00034025 RMS(Int)=  0.00000010
 Iteration  2 RMS(Cart)=  0.00000011 RMS(Int)=  0.00000002
 Variable       Old X    -DE/DX   Delta X   Delta X   Delta X     New X
                                 (Linear)    (Quad)   (Total)
    R1        2.47047  -0.00011   0.00000   0.00010   0.00010   2.47057
    R2        2.60822  -0.00031   0.00000  -0.00143  -0.00143   2.60679
    R3        2.58638   0.00013   0.00000   0.00038   0.00038   2.58676
    R4        1.92556  -0.00003   0.00000  -0.00005  -0.00005   1.92551
    R5        2.57084  -0.00032   0.00000  -0.00086  -0.00086   2.56998
    R6        2.50819   0.00004   0.00000   0.00048   0.00048   2.50867
    R7        2.05709   0.00004   0.00000   0.00007   0.00007   2.05716
    A1        1.94412  -0.00003   0.00000   0.00013   0.00013   1.94425
    A2        1.84746  -0.00010   0.00000  -0.00052  -0.00052   1.84694
    A3        2.09734  -0.00007   0.00000  -0.00040  -0.00040   2.09694
    A4        1.89266   0.00013   0.00000   0.00049   0.00049   1.89316
    A5        2.29318  -0.00006   0.00000  -0.00009  -0.00009   2.29309
    A6        1.84248   0.00018   0.00000   0.00055   0.00055   1.84303
    A7        1.89804  -0.00018   0.00000  -0.00065  -0.00065   1.89740
    A8        2.17827   0.00013   0.00000   0.00091   0.00091   2.17918
    A9        2.20688   0.00005   0.00000  -0.00027  -0.00027   2.20661
    D1        0.00000   0.00000   0.00000   0.00000   0.00000   0.00000
    D2        0.00000   0.00000   0.00000   0.00000   0.00000   0.00000
    D3        3.14159   0.00000   0.00000   0.00000   0.00000   3.14159
    D4        0.00000   0.00000   0.00000   0.00000   0.00000   0.00000
    D5        0.00000   0.00000   0.00000   0.00000   0.00000   0.00000
    D6        3.14159   0.00000   0.00000   0.00000   0.00000   3.14159
    D7        3.14159   0.00000   0.00000   0.00000   0.00000   3.14159
    D8        0.00000   0.00000   0.00000   0.00000   0.00000   0.00000
    D9        0.00000   0.00000   0.00000   0.00000   0.00000   0.00000
   D10        3.14159   0.00000   0.00000   0.00000   0.00000   3.14159
         Item               Value     Threshold  Converged?
 Maximum Force            0.000319     0.000450     YES
 RMS     Force            0.000116     0.000300     YES
 Maximum Displacement     0.001038     0.001800     YES
 RMS     Displacement     0.000340     0.001200     YES
 Predicted change in Energy=-6.243183D-07
 Optimization completed.
    -- Stationary point found.
                         ----------------------------
                         !   Optimized Parameters   !
                         ! (Angstroms and Degrees)  !
 ------------------------                            -------------------------
 ! Name  Definition              Value          Derivative Info.             !
 -----------------------------------------------------------------------------
 ! R1    R(1,2)                  1.3073         -DE/DX =   -0.0001           !
 ! R2    R(1,5)                  1.3802         -DE/DX =   -0.0003           !
 ! R3    R(2,3)                  1.3687         -DE/DX =    0.0001           !
 ! R4    R(3,4)                  1.019          -DE/DX =    0.               !
 ! R5    R(3,6)                  1.3604         -DE/DX =   -0.0003           !
 ! R6    R(5,6)                  1.3273         -DE/DX =    0.               !
 ! R7    R(6,7)                  1.0886         -DE/DX =    0.               !
 ! A1    A(2,1,5)              111.3901         -DE/DX =    0.               !
 ! A2    A(1,2,3)              105.8519         -DE/DX =   -0.0001           !
 ! A3    A(2,3,4)              120.1686         -DE/DX =   -0.0001           !
 ! A4    A(2,3,6)              108.4416         -DE/DX =    0.0001           !
 ! A5    A(4,3,6)              131.3898         -DE/DX =   -0.0001           !
 ! A6    A(1,5,6)              105.5665         -DE/DX =    0.0002           !
 ! A7    A(3,6,5)              108.7499         -DE/DX =   -0.0002           !
 ! A8    A(3,6,7)              124.8055         -DE/DX =    0.0001           !
 ! A9    A(5,6,7)              126.4446         -DE/DX =    0.               !
 ! D1    D(5,1,2,3)              0.             -DE/DX =    0.               !
 ! D2    D(2,1,5,6)              0.             -DE/DX =    0.               !
 ! D3    D(1,2,3,4)            180.             -DE/DX =    0.               !
 ! D4    D(1,2,3,6)              0.             -DE/DX =    0.               !
 ! D5    D(2,3,6,5)              0.             -DE/DX =    0.               !
 ! D6    D(2,3,6,7)            180.             -DE/DX =    0.               !
 ! D7    D(4,3,6,5)            180.             -DE/DX =    0.               !
 ! D8    D(4,3,6,7)              0.             -DE/DX =    0.               !
 ! D9    D(1,5,6,3)              0.             -DE/DX =    0.               !
 ! D10   D(1,5,6,7)            180.             -DE/DX =    0.               !
 -----------------------------------------------------------------------------
 GradGradGradGradGradGradGradGradGradGradGradGradGradGradGradGradGradGrad

 1\1\GINC-INDIUM\Freq\RB3LYP\CEP-31G(d)\C1H2N4\RDJ3\12-Sep-2000\0\\#N G
 EOM=ALLCHECK GUESS=TCHECK RB3LYP/CEP-31G(D) FREQ\\1H tetrazole c CH-NH
 -N=N-N= casno=288948\\0,1\N,-1.1823603567,-0.2840933748,0.\N,-0.715833
 1654,0.9371492455,0.\N,0.6474952304,0.8165427968,0.\H,1.2352072014,1.6
 489345031,0.\N,-0.1614716986,-1.2129495643,0.\C,0.9624520564,-0.506928
 9532,0.\H,1.9758345245,-0.9044642062,0.\\Version=IBM-RS6000-G98RevA.6\
 State=1-A'\HF=-46.4036172\RMSD=3.254e-09\RMSF=1.832e-04\Dipole=1.98766
 77,0.852969,0.\DipoleDeriv=-0.0349815,-0.1662469,-0.0000817,-0.2329574
 ,0.1272272,-0.0003689,0.0004028,-0.000457,-0.155755,0.2929259,0.250574
 ,-0.0000913,0.2690518,-0.3483999,0.0002347,-0.0002417,0.0005948,-0.093
 5485,-0.3625521,-0.2961794,0.0002768,-0.2169736,-0.2485075,0.000071,0.
 0000665,-0.000311,-0.1453819,0.2026262,0.0441417,-0.0000482,0.0243517,
 0.244221,-0.0000972,-0.0000035,0.0000169,0.3525495,-0.3710599,0.146906
 ,0.0000948,-0.0266714,-0.3487033,0.000201,-0.0004583,0.000238,-0.19016
 08,0.2408275,0.0014202,-0.0002214,0.1637869,0.4550459,0.0000221,0.0001
 542,-0.0000954,0.0292681,0.0322141,0.0193847,0.0000709,0.0194118,0.119
 1166,-0.0000626,0.0000801,0.0000137,0.2030286\Polar=40.2305903,-0.0507
 979,39.2998375,-0.0045145,0.0039071,17.764797\PG=CS [SG(C1H2N4)]\NImag
 =0\\0.53117446,0.09037745,0.47856767,-0.00000815,-0.00003557,0.1159953
 2,-0.13574900,-0.11074139,-0.00000869,0.41539381,-0.05469952,-0.325244
 23,0.00002850,-0.02473981,0.59501633,0.00000876,0.00003461,-0.08991045
 ,0.00000922,-0.00003033,0.10638392,-0.10576858,-0.10318229,0.00002321,
 -0.21300107,0.02503027,-0.00002142,0.63624387,-0.02894338,-0.05814697,
 0.00001300,0.05759556,-0.11605365,-0.00000858,0.19722075,0.90147078,-0
 .00000833,-0.00001079,0.02405709,-0.00000535,0.00001709,-0.06281723,0.
 00000832,-0.00000287,0.08546475,-0.01108617,-0.00152894,-0.00000541,-0
 .00349546,-0.03120668,0.00000171,-0.19248610,-0.18037130,0.00000273,0.
 19375677,0.00771963,0.00126228,-0.00001022,0.00187839,0.01194051,0.000
 00447,-0.18594849,-0.33747671,0.00000340,0.19573686,0.33366616,0.00000
 019,-0.00000214,0.00757491,0.00000176,-0.00000010,-0.01155126,0.000000
 05,0.00000148,-0.00671923,-0.00000090,-0.00000125,0.01337255,-0.163003
 07,0.06162468,0.00000660,-0.00057409,0.08481170,-0.00000512,-0.0015358
 3,-0.10790385,0.00000115,-0.00051991,-0.00110955,-0.00000010,0.4780232
 3,0.02489700,-0.12438786,0.00001375,-0.01746623,-0.11303752,-0.0000094
 5,0.00235451,-0.07828793,-0.00000830,0.00882714,-0.00590264,0.00000256
 ,0.10199336,0.50473459,0.00001212,0.00002815,-0.08408202,0.00000784,-0
 .00002710,0.03287934,-0.00002042,-0.00000900,0.01993145,0.00000396,0.0
 0000797,0.00723475,-0.00000353,-0.00000159,0.10317678,-0.11257659,0.06
 420970,-0.00001110,-0.06229659,0.00417573,0.00000868,-0.12834452,0.065
 45312,0.00000480,0.01402648,-0.01875423,-0.00000279,-0.29828586,-0.131
 40534,0.00000292,0.90734894,-0.03307228,0.02916861,-0.00000721,0.09405
 726,-0.04649463,0.00000850,0.03379968,-0.30644403,-0.00000112,0.008644
 29,-0.00321190,0.00000065,-0.12312135,-0.19717573,-0.00000017,-0.08826
 897,0.61988161,-0.00000264,-0.00001097,0.01768462,-0.00000067,0.000007
 94,0.01903384,0.00000681,0.00000495,-0.05729118,-0.00000315,-0.0000051
 6,-0.00922406,0.00000274,0.00000540,-0.07443064,-0.00000477,-0.0000009
 3,0.13327108,-0.00299105,-0.00075921,0.00000354,-0.00027758,-0.0033716
 9,-0.00000183,0.00489221,-0.00305090,-0.00000332,-0.00019562,0.0004773
 8,0.00000180,-0.01410447,0.01079956,-0.00000289,-0.31987187,0.10796137
 ,0.00000168,0.33254838,-0.00627890,-0.00121951,-0.00000225,-0.00058377
 ,-0.00612680,0.00000077,0.03072557,-0.00506150,0.00000259,-0.00010137,
 -0.00027770,-0.00000120,-0.01629499,0.01405708,0.00000174,0.10458999,-
 0.09572393,-0.00000124,-0.11205652,0.09435237,-0.00000194,-0.00000328,
 0.00868053,-0.00000412,0.00000399,0.00598184,0.00000344,0.00000103,-0.
 00262565,0.00000106,0.00000079,-0.00068765,-0.00000172,-0.00000238,-0.
 00470967,0.00000226,0.00000026,-0.02904365,0.00000102,-0.00000042,0.02
 240425\\-0.00023502,0.00016760,0.,0.00018246,-0.00002853,0.,-0.0000253
 2,0.00046155,0.,0.00001845,0.00001954,0.,0.00029804,-0.00038577,0.,-0.
 00021784,-0.00029058,0.,-0.00002078,0.00005619,0.\\\@

 UNDER MOST GREENE GRASSE LY MOST GREATE SNAKES.
 -- PROVERBS AND REASONS OF THE YEAR 1585
           AS REPRINTED IN PAISLEY MAGAZINE 1828.
 Job cpu time:  0 days  0 hours  4 minutes 51.3 seconds.
 File lengths (MBytes):  RWF=   16 Int=    0 D2E=    0 Chk=    8 Scr=    1
 Normal termination of Gaussian 98.
