 Gaussian 98, Revision A.4,
 Gaussian 98:  x86-Linux-G98RevA.4 11-Sep-1998

 ---------------------
 #B3LYP/3-21G opt freq
 ---------------------

 ----------------------------------------
 1H tetrazole c CH-NH-N=N-N= casno=288948
 ----------------------------------------
 Symbolic Z-matrix:
 Charge =  0 Multiplicity = 1

 SCF Done:  E(RB+HF-LYP) =  -256.765896514     A.U. after   15 cycles
 SCF Done:  E(RB+HF-LYP) =  -256.785431372     A.U. after   14 cycles
 SCF Done:  E(RB+HF-LYP) =  -256.786872233     A.U. after   13 cycles
 SCF Done:  E(RB+HF-LYP) =  -256.787250730     A.U. after   12 cycles
 SCF Done:  E(RB+HF-LYP) =  -256.787359405     A.U. after    9 cycles
 SCF Done:  E(RB+HF-LYP) =  -256.787378655     A.U. after   10 cycles
 SCF Done:  E(RB+HF-LYP) =  -256.787386385     A.U. after    9 cycles
 SCF Done:  E(RB+HF-LYP) =  -256.787390447     A.U. after   10 cycles
 SCF Done:  E(RB+HF-LYP) =  -256.787391359     A.U. after    9 cycles
 Optimization completed.
    -- Stationary point found.
 Normal termination of Gaussian 98.

 -----------------------------------------------
 #N Geom=AllCheck Guess=TCheck RB3LYP/3-21G Freq
 -----------------------------------------------

 1H tetrazole c CH-NH-N=N-N= casno=288948
 ----------------------------------------
 Redundant internal coordinates taken from checkpointfile:
 /wrk/rdj3/Gau-30454.chk
 Charge =  0 Multiplicity = 1

                         Standard orientation:
 ---------------------------------------------------------------------
 Center     Atomic     Atomic              Coordinates (Angstroms)
 Number     Number      Type              X           Y           Z
 ---------------------------------------------------------------------
    1          7             0       -0.744256   -0.968869    0.000000
    2          7             0       -1.172479    0.287090    0.000000
    3          7             0        0.000000    1.085337    0.000000
    4          1             0       -0.070076    2.095490    0.000000
    5          7             0        0.701577   -1.012144    0.000000
    6          6             0        1.079665    0.260475    0.000000
    7          1             0        2.098188    0.601760    0.000000
 ---------------------------------------------------------------------

 SCF Done:  E(RB+HF-LYP) =  -256.787391359     A.U. after    1 cycles

  The electronic state is 1-A'.
 Alpha  occ. eigenvalues --  -14.37181 -14.34725 -14.32852 -14.29559 -10.23263
 Alpha  occ. eigenvalues --   -1.14089  -0.94406  -0.91428  -0.67759  -0.66856
 Alpha  occ. eigenvalues --   -0.60419  -0.49797  -0.48689  -0.36991  -0.32862
 Alpha  occ. eigenvalues --   -0.31530  -0.30157  -0.29122
 Alpha virt. eigenvalues --   -0.03484   0.00624   0.07094   0.09419   0.15998
 Alpha virt. eigenvalues --    0.19322   0.25324   0.34794   0.38274   0.66366
 Alpha virt. eigenvalues --    0.68725   0.79857   0.82889   0.91317   1.00840

  Exact polarizability:  34.990   1.310  34.759  -0.001   0.001  11.304
 Approx polarizability:  66.851  -0.555  75.041   0.000   0.000  14.654

                     1                      2                      3
                    A"                     A"                     A"
 Frequencies --   625.2561               674.9221               683.5987
 Red. masses --     2.6124                 1.4110                 8.1999
 Frc consts  --     0.6017                 0.3787                 2.2577
 IR Inten    --    93.4246                53.8988                11.2344
 Raman Activ --     0.0000                 0.0000                 0.0000

                     4                      5                      6
                    A'                     A'                     A"
 Frequencies --   763.7057               847.5538               916.4090
 Red. masses --    10.3720                 6.4999                 1.3847
 Frc consts  --     3.5642                 2.7510                 0.6851
 IR Inten    --     9.9478                15.9744                15.7214
 Raman Activ --     0.0000                 0.0000                 0.0000

                     7                      8                      9
                    A'                     A'                     A'
 Frequencies --   979.6151              1011.0821              1075.8427
 Red. masses --     4.7551                 6.5380                 7.3001
 Frc consts  --     2.6885                 3.9380                 4.9783
 IR Inten    --     7.5934                 8.7381                 2.9783
 Raman Activ --     0.0000                 0.0000                 0.0000

                    10                     11                     12
                    A'                     A'                     A'
 Frequencies --  1142.5867              1216.3396              1360.6148
 Red. masses --     2.1414                 2.1837                 2.6207
 Frc consts  --     1.6471                 1.9035                 2.8585
 IR Inten    --    13.5962                 7.4578                 5.0971
 Raman Activ --     0.0000                 0.0000                 0.0000

                    13                     14                     15
                    A'                     A'                     A'
 Frequencies --  1436.0286              3321.8042              3588.4672
 Red. masses --     2.1765                 1.0993                 1.0845
 Frc consts  --     2.6445                 7.1470                 8.2279
 IR Inten    --    39.1769                 2.4341                93.0197
 Raman Activ --     0.0000                 0.0000                 0.0000

 - Thermochemistry -
 -------------------
 Temperature   298.150 Kelvin.  Pressure   1.00000 Atm.
 Atom  1 has atomic number  7 and mass  14.00307

 Molecular mass:    70.02795 amu.
 Principal axes and moments of inertia in atomic units:
                           1         2         3
     EIGENVALUES --   180.80223 186.70423 367.50647
           X            0.99651   0.08351   0.00000
           Y           -0.08351   0.99651   0.00000
           Z            0.00000   0.00000   1.00000
 THIS MOLECULE IS AN ASYMMETRIC TOP.
 ROTATIONAL SYMMETRY NUMBER  1.
 ROTATIONAL TEMPERATURES (KELVIN)      0.47905     0.46391     0.23568
 ROTATIONAL CONSTANTS (GHZ)            9.98185     9.66631     4.91077
 Zero-point vibrational energy     117496.2 (Joules/Mol)
                                   28.08226 (Kcal/Mol)
 VIBRATIONAL TEMPERATURES:    899.60   971.06   983.54  1098.80  1219.43
          (KELVIN)           1318.50  1409.44  1454.71  1547.89  1643.92
                             1750.03  1957.61  2066.11  4779.31  5162.97

 Zero-point correction=                           0.044752 (Hartree/Particle)
 Thermal correction to Energy=                    0.048334
 Thermal correction to Enthalpy=                  0.049278
 Thermal correction to Gibbs Free Energy=         0.018542
 Sum of electronic and zero-point Energies=           -256.742639
 Sum of electronic and thermal Energies=              -256.739057
 Sum of electronic and thermal Enthalpies=            -256.738113
 Sum of electronic and thermal Free Energies=         -256.768849

                     E (Thermal)             CV                S
                      KCAL/MOL        CAL/MOL-KELVIN    CAL/MOL-KELVIN
 TOTAL                   30.330             12.166             64.689
 ELECTRONIC               0.000              0.000              0.000
 TRANSLATIONAL            0.889              2.981             38.656
 ROTATIONAL               0.889              2.981             24.032
 VIBRATIONAL             28.553              6.205              2.001
                       Q            LOG10(Q)             LN(Q)
 TOTAL BOT       0.295883D-08         -8.528880        -19.638472
 TOTAL V=0       0.113617D+13         12.055442         27.758680
 VIB (BOT)       0.322175D-20        -20.491908        -47.184363
 VIB (V=0)       0.123712D+01          0.092413          0.212789
 ELECTRONIC      0.100000D+01          0.000000          0.000000
 TRANSLATIONAL   0.230339D+08          7.362368         16.952478
 ROTATIONAL      0.398713D+05          4.600661         10.593413
 ***** Axes restored to original set *****
 -------------------------------------------------------------------
 Center     Atomic                   Forces (Hartrees/Bohr)
 Number     Number              X              Y              Z
 -------------------------------------------------------------------
    1          7          -0.000026304   -0.000000907    0.000000000
    2          7           0.000024166   -0.000005679    0.000000000
    3          7          -0.000067305    0.000154549    0.000000000
    4          1           0.000018527   -0.000002523    0.000000000
    5          7          -0.000027075   -0.000033402    0.000000000
    6          6           0.000069816   -0.000146773    0.000000000
    7          1           0.000008176    0.000034734    0.000000000
 -------------------------------------------------------------------
 Cartesian Forces:  Max     0.000154549 RMS     0.000053279

 GradGradGradGradGradGradGradGradGradGradGradGradGradGradGradGradGradGrad
 Berny optimization.
 Internal  Forces:  Max     0.000128045 RMS     0.000030473
 Search for a local minimum.
 Step number   1 out of a maximum of  36
 All quantities printed in internal units (Hartrees-Bohrs-Radians)
 Second derivative matrix not updated -- analytic derivatives used.
     Eigenvalues ---    0.00977   0.02836   0.07006   0.07409   0.09744
     Eigenvalues ---    0.10392   0.12246   0.15932   0.29374   0.33153
     Eigenvalues ---    0.38686   0.42146   0.45960   0.52025   0.59735
     Eigenvalues --- 1000.000001000.000001000.000001000.000001000.00000
     Eigenvalues --- 1000.000001000.000001000.000001000.000001000.00000
     Eigenvalues --- 1000.00000
 Angle between quadratic step and forces=  38.78 degrees.
 Linear search not attempted -- first point.
 Iteration  1 RMS(Cart)=  0.00012889 RMS(Int)=  0.00000003
 Iteration  2 RMS(Cart)=  0.00000002 RMS(Int)=  0.00000000
 Variable       Old X    -DE/DX   Delta X   Delta X   Delta X     New X
                                 (Linear)    (Quad)   (Total)
    R1        2.50758   0.00002   0.00000   0.00004   0.00004   2.50762
    R2        2.73345   0.00003   0.00000   0.00018   0.00018   2.73363
    R3        2.68042  -0.00002   0.00000  -0.00024  -0.00024   2.68018
    R4        1.91350   0.00001   0.00000   0.00003   0.00003   1.91353
    R5        2.56758   0.00013   0.00000   0.00041   0.00041   2.56799
    R6        2.50879   0.00004   0.00000  -0.00001  -0.00001   2.50878
    R7        2.02991  -0.00001   0.00000  -0.00002  -0.00002   2.02989
    A1        1.92931   0.00001   0.00000  -0.00003  -0.00003   1.92928
    A2        1.83994   0.00002   0.00000   0.00011   0.00011   1.84005
    A3        2.09927   0.00003   0.00000   0.00024   0.00024   2.09951
    A4        1.89146  -0.00001   0.00000   0.00000   0.00000   1.89145
    A5        2.29246  -0.00001   0.00000  -0.00023  -0.00023   2.29222
    A6        1.82966  -0.00001   0.00000   0.00001   0.00001   1.82967
    A7        1.93441  -0.00002   0.00000  -0.00008  -0.00008   1.93433
    A8        2.16587  -0.00002   0.00000  -0.00034  -0.00034   2.16554
    A9        2.18291   0.00004   0.00000   0.00041   0.00041   2.18332
    D1        0.00000   0.00000   0.00000   0.00000   0.00000   0.00000
    D2        0.00000   0.00000   0.00000   0.00000   0.00000   0.00000
    D3        3.14159   0.00000   0.00000   0.00000   0.00000   3.14159
    D4        0.00000   0.00000   0.00000   0.00000   0.00000   0.00000
    D5        0.00000   0.00000   0.00000   0.00000   0.00000   0.00000
    D6        3.14159   0.00000   0.00000   0.00000   0.00000   3.14159
    D7        3.14159   0.00000   0.00000   0.00000   0.00000   3.14159
    D8        0.00000   0.00000   0.00000   0.00000   0.00000   0.00000
    D9        0.00000   0.00000   0.00000   0.00000   0.00000   0.00000
   D10        3.14159   0.00000   0.00000   0.00000   0.00000   3.14159
         Item               Value     Threshold  Converged?
 Maximum Force            0.000128     0.000450     YES
 RMS     Force            0.000030     0.000300     YES
 Maximum Displacement     0.000375     0.001800     YES
 RMS     Displacement     0.000129     0.001200     YES
 Predicted change in Energy=-4.970721D-08
 Optimization completed.
    -- Stationary point found.
                         ----------------------------
                         !   Optimized Parameters   !
                         ! (Angstroms and Degrees)  !
 ------------------------                            -------------------------
 ! Name  Definition              Value          Derivative Info.             !
 -----------------------------------------------------------------------------
 ! R1    R(1,2)                  1.327          -DE/DX =    0.               !
 ! R2    R(1,5)                  1.4465         -DE/DX =    0.               !
 ! R3    R(2,3)                  1.4184         -DE/DX =    0.               !
 ! R4    R(3,4)                  1.0126         -DE/DX =    0.               !
 ! R5    R(3,6)                  1.3587         -DE/DX =    0.0001           !
 ! R6    R(5,6)                  1.3276         -DE/DX =    0.               !
 ! R7    R(6,7)                  1.0742         -DE/DX =    0.               !
 ! A1    A(2,1,5)              110.5414         -DE/DX =    0.               !
 ! A2    A(1,2,3)              105.4208         -DE/DX =    0.               !
 ! A3    A(2,3,4)              120.2795         -DE/DX =    0.               !
 ! A4    A(2,3,6)              108.3724         -DE/DX =    0.               !
 ! A5    A(4,3,6)              131.3481         -DE/DX =    0.               !
 ! A6    A(1,5,6)              104.832          -DE/DX =    0.               !
 ! A7    A(3,6,5)              110.8333         -DE/DX =    0.               !
 ! A8    A(3,6,7)              124.0954         -DE/DX =    0.               !
 ! A9    A(5,6,7)              125.0713         -DE/DX =    0.               !
 ! D1    D(5,1,2,3)              0.             -DE/DX =    0.               !
 ! D2    D(2,1,5,6)              0.             -DE/DX =    0.               !
 ! D3    D(1,2,3,4)            180.             -DE/DX =    0.               !
 ! D4    D(1,2,3,6)              0.             -DE/DX =    0.               !
 ! D5    D(2,3,6,5)              0.             -DE/DX =    0.               !
 ! D6    D(2,3,6,7)            180.             -DE/DX =    0.               !
 ! D7    D(4,3,6,5)            180.             -DE/DX =    0.               !
 ! D8    D(4,3,6,7)              0.             -DE/DX =    0.               !
 ! D9    D(1,5,6,3)              0.             -DE/DX =    0.               !
 ! D10   D(1,5,6,7)            180.             -DE/DX =    0.               !
 -----------------------------------------------------------------------------
 GradGradGradGradGradGradGradGradGradGradGradGradGradGradGradGradGradGrad

 1\1\GINC-QCHEM8\Freq\RB3LYP\3-21G\C1H2N4\RDJ3\11-Oct-1999\0\\#N GEOM=A
 LLCHECK GUESS=TCHECK RB3LYP/3-21G FREQ\\1H tetrazole c CH-NH-N=N-N= ca
 sno=288948\\0,1\N,-1.1917587711,-0.2689503258,0.\N,-0.7178333892,0.970
 4856498,0.\N,0.6940418901,0.8344231943,0.\H,1.28613065,1.6558551791,0.
 \N,-0.1078544093,-1.2267897265,0.\C,0.9966292601,-0.4901578737,0.\H,1.
 9979265453,-0.8790894799,0.\\Version=x86-Linux-G98RevA.4\State=1-A'\HF
 =-256.7873914\RMSD=3.653e-09\RMSF=5.328e-05\Dipole=1.9617037,0.8607895
 ,0.\DipoleDeriv=0.1014907,-0.0737218,-0.0000049,-0.1940525,-0.0407975,
 -0.0000601,-0.0000075,0.0001153,-0.1545279,0.2975739,0.181642,-0.00001
 76,0.1660459,-0.2304951,0.0000384,-0.0000137,-0.0000049,-0.0621905,-0.
 450569,-0.1989636,0.0000391,-0.2128251,-0.2897202,-0.0000517,-0.000030
 8,0.0001424,-0.2631764,0.2257169,0.0181224,0.0000064,0.0337635,0.27078
 78,0.0000047,0.0000117,-0.0000417,0.4009919,-0.4303672,0.1042485,0.000
 0423,0.0282739,-0.1764378,0.0000698,-0.0000025,0.0000256,-0.1914116,0.
 1867209,-0.052576,-0.000108,0.1833413,0.3345089,0.0000126,0.0000516,-0
 .0002469,0.0842089,0.0694343,0.0212484,0.0000427,-0.0045468,0.132154,-
 0.0000136,-0.0000087,0.0000103,0.1861056\Polar=36.1832995,0.1252558,33
 .5653139,-0.0004243,0.0015564,11.3035326\PG=CS [SG(C1H2N4)]\NImag=0\\0
 .42993138,0.08756893,0.29238283,-0.00000205,0.00000596,0.10451064,-0.0
 9685045,-0.06915220,0.00000294,0.28800875,-0.00133823,-0.19566400,-0.0
 0000252,-0.06111356,0.45240879,-0.00000015,0.00000113,-0.08131825,-0.0
 0000022,-0.00000055,0.09760719,-0.11090119,-0.09313736,-0.00000458,-0.
 10959652,0.00779092,-0.00000106,0.53634117,-0.02830574,-0.06047574,-0.
 00000215,0.04217445,-0.09959878,-0.00000260,0.21619567,0.84944369,-0.0
 0000074,0.00000647,0.02163648,0.00000233,-0.00000354,-0.06217168,-0.00
 000434,0.00000158,0.09768559,-0.00918260,-0.00094433,0.00000100,-0.002
 29422,-0.02972677,0.00000125,-0.19323503,-0.17677303,0.00000022,0.1919
 1285,0.00903015,0.00133302,0.00000211,0.00481393,0.01037381,0.00000205
 ,-0.18089175,-0.32522459,0.00000089,0.18897400,0.32151244,0.00000032,-
 0.00000233,0.00665315,-0.00000073,0.00000114,-0.00889155,0.00000206,0.
 00000067,-0.01198582,-0.00000067,-0.00000128,0.01493336,-0.08669491,0.
 02184480,0.00000034,-0.01316232,0.07410516,-0.00000027,-0.00032405,-0.
 10338828,-0.00000228,-0.00119967,-0.00054048,0.00000068,0.37245573,-0.
 03229508,-0.05770894,-0.00000494,-0.01421001,-0.11197678,-0.00000025,-
 0.00314412,-0.08882871,-0.00000632,0.00848924,-0.00444487,0.00000205,0
 .13200001,0.42533543,-0.00000034,0.00000128,-0.07660923,0.00000059,-0.
 00000053,0.02884753,-0.00000121,-0.00000039,0.02394861,0.00000030,0.00
 000062,0.00686159,-0.00000010,-0.00000116,0.09903961,-0.12505029,0.053
 75781,0.00000242,-0.06660847,0.01507148,-0.00000116,-0.12688811,0.0551
 0110,0.00000683,0.01429080,-0.02214833,-0.00000195,-0.25529712,-0.1008
 7593,0.00000101,0.88924576,-0.02889900,0.02118301,0.00000166,0.0993593
 3,-0.05011877,0.00000075,0.01966205,-0.26590640,0.00000036,0.01035367,
 -0.00293904,-0.00000017,-0.10321553,-0.17351166,0.00000012,-0.11008799
 ,0.56302247,0.00000312,-0.00001364,0.01585186,-0.00000505,0.00000656,0
 .02090020,0.00001008,0.00000408,-0.06938950,-0.00000275,-0.00000550,-0
 .00651736,0.00000190,0.00001130,-0.07876747,-0.00000720,-0.00000310,0.
 15370663,-0.00125193,0.00006235,-0.00000008,0.00050322,-0.00478900,0.0
 0000161,0.00460372,-0.00500416,-0.00000203,-0.00029212,0.00076250,0.00
 000027,-0.01577766,0.01003588,-0.00000026,-0.32969259,0.11282747,-0.00
 000009,0.34190736,-0.00576102,-0.00105019,-0.00000013,-0.00187193,-0.0
 0542428,-0.00000052,0.03352458,-0.00940949,0.00000056,-0.00037278,-0.0
 0061077,-0.00000008,-0.02080568,0.01113553,0.00000007,0.10918186,-0.09
 172962,0.00000029,-0.11389505,0.09708881,-0.00000016,0.00000111,0.0092
 7534,0.00000013,-0.00000055,0.00502656,-0.00000095,-0.00000119,0.00027
 632,0.00000065,0.00000111,-0.00105337,-0.00000028,-0.00000068,-0.00332
 064,0.00000004,0.00000038,-0.03578435,0.00000058,-0.00000019,0.0255801
 5\\0.00002630,0.00000091,0.,-0.00002417,0.00000568,0.,0.00006730,-0.00
 015455,0.,-0.00001853,0.00000252,0.,0.00002708,0.00003340,0.,-0.000069
 82,0.00014677,0.,-0.00000818,-0.00003473,0.\\\@

 WE LEARN WISDOM FROM FAILURE MUCH MORE THAN FROM SUCCESS.
 WE DISCOVER WHAT WILL DO BY FINDING OUT WHAT WILL NOT DO...
 AND HE WHO NEVER MADE A MISTAKE NEVER MADE A DISCOVERY
 Job cpu time:  0 days  0 hours  7 minutes 36.4 seconds.
 File lengths (MBytes):  RWF=   10 Int=    0 D2E=    0 Chk=    3 Scr=    1
 Normal termination of Gaussian 98.
