 Gaussian 09, Revision A.02,
 Gaussian 09:  AM64L-G09RevA.02 11-Jun-2009

 --------------------
 #B3LYP/TZVP opt freq
 --------------------

 ----------------------------------------------------------
 1H tetrazole c CH-NH-N=N-N= casno=288948 method=8 basis=32
 ----------------------------------------------------------
 Symbolic Z-matrix:
 Charge =  0 Multiplicity = 1

 SCF Done:  E(RB3LYP) =  -258.333336063     A.U. after   14 cycles
 SCF Done:  E(RB3LYP) =  -258.336470585     A.U. after   12 cycles
 SCF Done:  E(RB3LYP) =  -258.336532313     A.U. after   10 cycles
 SCF Done:  E(RB3LYP) =  -258.336547835     A.U. after    9 cycles
 SCF Done:  E(RB3LYP) =  -258.336552127     A.U. after    9 cycles
 Optimization completed.
    -- Stationary point found.
 Normal termination of Gaussian 09 at Tue Feb  1 08:48:46 2011.

 ----------------------------------------------------------------
 #N Geom=AllCheck Guess=TCheck SCRF=Check GenChk RB3LYP/TZVP Freq
 ----------------------------------------------------------------

 1H tetrazole c CH-NH-N=N-N= casno=288948 method=8 basis=32
 ----------------------------------------------------------
 Redundant internal coordinates taken from checkpoint file:
 /gaussian/Gau-10324.chk
 Charge =  0 Multiplicity = 1

                         Standard orientation:
 ---------------------------------------------------------------------
 Center     Atomic      Atomic             Coordinates (Angstroms)
 Number     Number       Type             X           Y           Z
 ---------------------------------------------------------------------
      1          7           0       -0.723743   -0.924392    0.000000
      2          7           0       -1.119700    0.297440    0.000000
      3          7           0        0.000000    1.054207    0.000000
      4          1           0       -0.063281    2.060137    0.000000
      5          7           0        0.639223   -1.002992    0.000000
      6          6           0        1.066639    0.235161    0.000000
      7          1           0        2.092981    0.559053    0.000000
 ---------------------------------------------------------------------

 SCF Done:  E(RB3LYP) =  -258.336552127     A.U. after    1 cycles

 The electronic state is 1-A'.
 Alpha  occ. eigenvalues --  -14.43813 -14.40517 -14.38755 -14.35753 -10.27418
 Alpha  occ. eigenvalues --   -1.16110  -0.96114  -0.91140  -0.69349  -0.68026
 Alpha  occ. eigenvalues --   -0.61173  -0.51375  -0.51127  -0.39418  -0.34614
 Alpha  occ. eigenvalues --   -0.32588  -0.31753  -0.30485
 Alpha virt. eigenvalues --   -0.03733  -0.00111   0.00528   0.05880   0.10879
 Alpha virt. eigenvalues --    0.11850   0.14898   0.19282   0.22084   0.25859
 Alpha virt. eigenvalues --    0.27485   0.31110   0.33056   0.34001   0.35495

 Mulliken atomic charges:
              1
     1  N   -0.077751
     2  N   -0.070761
     3  N   -0.106714
     4  H    0.267425
     5  N   -0.070760
     6  C   -0.084608
     7  H    0.143170
 Sum of Mulliken atomic charges =   0.00000

 Dipole moment (field-independent basis, Debye):
    X=              2.5633    Y=              4.8712    Z=              0.0000  Tot=              5.5045
 Quadrupole moment (field-independent basis, Debye-Ang):
   XX=            -29.4375   YY=            -26.9233   ZZ=            -28.6073
   XY=              1.8940   XZ=              0.0000   YZ=              0.0000

  Exact polarizability:  41.858   0.744  41.491   0.000   0.000  22.041
 Approx polarizability:  69.160   0.298  73.731   0.000   0.000  32.342

                     1                      2                      3
                    A"                     A"                     A"
 Frequencies --   573.7729               691.2656               733.7035
 Red. masses --     2.0053                 1.8390                 7.5568
 Frc consts  --     0.3890                 0.5177                 2.3968
 IR Inten    --    73.9161                14.0354                 9.4988

                     4                      5                      6
                    A"                     A'                     A'
 Frequencies --   847.8252               953.2521              1010.8451
 Red. masses --     1.3263                 6.3021                 5.6110
 Frc consts  --     0.5617                 3.3741                 3.3780
 IR Inten    --    24.0791                 6.5535                 1.0797

                     7                      8                      9
                    A'                     A'                     A'
 Frequencies --  1016.3361              1060.5853              1144.5881
 Red. masses --     5.9792                 3.2387                 2.0453
 Frc consts  --     3.6389                 2.1464                 1.5787
 IR Inten    --    17.0807                26.3384                18.4516

                    10                     11                     12
                    A'                     A'                     A'
 Frequencies --  1264.6839              1287.2591              1448.3309
 Red. masses --     2.1715                10.9218                 3.0079
 Frc consts  --     2.0463                10.6629                 3.7175
 IR Inten    --     4.4754                15.4930                 9.2553

                    13                     14                     15
                    A'                     A'                     A'
 Frequencies --  1507.6407              3283.6331              3645.5052
 Red. masses --     3.0563                 1.1007                 1.0837
 Frc consts  --     4.0931                 6.9927                 8.4854
 IR Inten    --    17.9674                 2.0679                97.2262

 - Thermochemistry -
 -------------------
 Temperature   298.150 Kelvin.  Pressure   1.00000 Atm.
 Atom     1 has atomic number  7 and mass  14.00307

 Molecular mass:    70.02795 amu.
 Principal axes and moments of inertia in atomic units:
                           1         2         3
     Eigenvalues --   171.04543 174.05959 345.10502
           X            0.92898   0.37013   0.00000
           Y           -0.37013   0.92898   0.00000
           Z            0.00000   0.00000   1.00000
 This molecule is an asymmetric top.
 Rotational symmetry number  1.
 Rotational temperatures (Kelvin)      0.50638     0.49761     0.25098
 Rotational constants (GHZ):          10.55124    10.36852     5.22954
 Zero-point vibrational energy     122433.2 (Joules/Mol)
                                   29.26223 (Kcal/Mol)
 Warning -- explicit consideration of   1 degrees of freedom as
           vibrations may cause significant error
 Vibrational temperatures:    825.53   994.58  1055.63  1219.83  1371.52
          (Kelvin)           1454.38  1462.28  1525.94  1646.80  1819.60
                             1852.08  2083.82  2169.16  4724.41  5245.06

 Zero-point correction=                           0.046632 (Hartree/Particle)
 Thermal correction to Energy=                    0.050121
 Thermal correction to Enthalpy=                  0.051065
 Thermal correction to Gibbs Free Energy=         0.020535
 Sum of electronic and zero-point Energies=           -258.289920
 Sum of electronic and thermal Energies=              -258.286431
 Sum of electronic and thermal Enthalpies=            -258.285487
 Sum of electronic and thermal Free Energies=         -258.316017

                     E (Thermal)             CV                S
                      KCal/Mol        Cal/Mol-Kelvin    Cal/Mol-Kelvin
 Total                   31.452             11.436             64.256
 Electronic               0.000              0.000              0.000
 Translational            0.889              2.981             38.656
 Rotational               0.889              2.981             23.845
 Vibrational             29.674              5.474              1.756
 Vibration     1          0.930              1.088              0.497

 Optimization completed.
    -- Stationary point found.
 Normal termination of Gaussian 09 at Tue Feb  1 08:50:46 2011.
