 Gaussian 98, Revision A.6,
 Gaussian 98:  IBM-RS6000-G98RevA.6 19-Oct-1998

 -----------------------
 #B3LYP/6-31G** opt freq
 -----------------------

 ----------------------------------------
 1H tetrazole c CH-NH-N=N-N= casno=288948
 ----------------------------------------
 Symbolic Z-matrix:
 Charge =  0 Multiplicity = 1

 SCF Done:  E(RB+HF-LYP) =  -258.251399234     A.U. after   15 cycles
 SCF Done:  E(RB+HF-LYP) =  -258.255870335     A.U. after   13 cycles
 SCF Done:  E(RB+HF-LYP) =  -258.255942371     A.U. after   10 cycles
 SCF Done:  E(RB+HF-LYP) =  -258.255949514     A.U. after    9 cycles
 SCF Done:  E(RB+HF-LYP) =  -258.255954778     A.U. after    9 cycles
 Optimization completed.
    -- Stationary point found.
 Normal termination of Gaussian 98.

 ----------------------------------------------------
 #N Geom=AllCheck Guess=TCheck RB3LYP/6-31G(d,p) Freq
 ----------------------------------------------------

 1H tetrazole c CH-NH-N=N-N= casno=288948
 ----------------------------------------
 Redundant internal coordinates taken from checkpointfile:
 /wrk/rdj3/Gau-38282.chk
 Charge =  0 Multiplicity = 1

                         Standard orientation:
 ---------------------------------------------------------------------
 Center     Atomic     Atomic              Coordinates (Angstroms)
 Number     Number      Type              X           Y           Z
 ---------------------------------------------------------------------
    1          7             0       -0.724093   -0.927205    0.000000
    2          7             0       -1.123387    0.300995    0.000000
    3          7             0        0.000000    1.056374    0.000000
    4          1             0       -0.060716    2.064220    0.000000
    5          7             0        0.640351   -1.007719    0.000000
    6          6             0        1.068944    0.235794    0.000000
    7          1             0        2.096950    0.563900    0.000000
 ---------------------------------------------------------------------

 SCF Done:  E(RB+HF-LYP) =  -258.255954778     A.U. after    1 cycles

  The electronic state is 1-A'.
 Alpha  occ. eigenvalues --  -14.45139 -14.41552 -14.39762 -14.36789 -10.28328
 Alpha  occ. eigenvalues --   -1.14475  -0.94906  -0.89753  -0.68264  -0.66751
 Alpha  occ. eigenvalues --   -0.59930  -0.50227  -0.49812  -0.38197  -0.33383
 Alpha  occ. eigenvalues --   -0.31266  -0.30642  -0.29336
 Alpha virt. eigenvalues --   -0.02389   0.01390   0.05317   0.10485   0.17782
 Alpha virt. eigenvalues --    0.19771   0.27776   0.32055   0.40524   0.50863
 Alpha virt. eigenvalues --    0.51698   0.59102   0.60180   0.63449   0.66046

  Exact polarizability:  37.694   1.032  37.300   0.004   0.005  15.653
 Approx polarizability:  66.380   0.335  70.818   0.000   0.000  24.199

                     1                      2                      3
                    A"                     A"                     A"
 Frequencies --   575.9111               689.8375               736.9169
 Red. masses --     1.7377                 2.0195                 8.3630
 Frc consts  --     0.3396                 0.5662                 2.6758
 IR Inten    --    87.8383                 8.7754                 8.2201
 Raman Activ --     0.0000                 0.0000                 0.0000

                     4                      5                      6
                    A"                     A'                     A'
 Frequencies --   853.8267               968.6981              1008.6081
 Red. masses --     1.3536                 5.0214                 6.0651
 Frc consts  --     0.5814                 2.7762                 3.6353
 IR Inten    --    16.3157                 4.1179                 0.2403
 Raman Activ --     0.0000                 0.0000                 0.0000

                     7                      8                      9
                    A'                     A'                     A'
 Frequencies --  1042.9934              1066.9488              1149.5322
 Red. masses --     5.0050                 3.5501                 1.9288
 Frc consts  --     3.2079                 2.3811                 1.5017
 IR Inten    --    17.0860                28.0055                15.9779
 Raman Activ --     0.0000                 0.0000                 0.0000

                    10                     11                     12
                    A'                     A'                     A'
 Frequencies --  1270.4599              1301.0340              1464.0419
 Red. masses --     2.2790                10.7259                 3.1460
 Frc consts  --     2.1673                10.6970                 3.9729
 IR Inten    --     2.7420                16.4874                 9.2930
 Raman Activ --     0.0000                 0.0000                 0.0000

                    13                     14                     15
                    A'                     A'                     A'
 Frequencies --  1515.2252              3299.9425              3664.8978
 Red. masses --     3.3394                 1.1003                 1.0837
 Frc consts  --     4.5173                 7.0594                 8.5763
 IR Inten    --    17.7363                 0.9909                86.8386
 Raman Activ --     0.0000                 0.0000                 0.0000

 - Thermochemistry -
 -------------------
 Temperature   298.150 Kelvin.  Pressure   1.00000 Atm.
 Atom  1 has atomic number  7 and mass  14.00307

 Molecular mass:    70.02795 amu.
 Principal axes and moments of inertia in atomic units:
                           1         2         3
     EIGENVALUES --   171.96637 175.07946 347.04583
           X            0.88889   0.45813   0.00000
           Y           -0.45813   0.88889   0.00000
           Z            0.00000   0.00000   1.00000
 THIS MOLECULE IS AN ASYMMETRIC TOP.
 ROTATIONAL SYMMETRY NUMBER  1.
 ROTATIONAL TEMPERATURES (KELVIN)      0.50366     0.49471     0.24957
 ROTATIONAL CONSTANTS (GHZ)           10.49473    10.30813     5.20030
 Zero-point vibrational energy     123268.5 (Joules/Mol)
                                   29.46187 (Kcal/Mol)
 WARNING-- EXPLICIT CONSIDERATION OF   1 DEGREES OF FREEDOM AS
           VIBRATIONS MAY CAUSE SIGNIFICANT ERROR
 VIBRATIONAL TEMPERATURES:    828.60   992.52  1060.25  1228.46  1393.73
          (KELVIN)           1451.15  1500.63  1535.09  1653.91  1827.90
                             1871.89  2106.42  2180.06  4747.85  5272.94

 Zero-point correction=                           0.046950 (Hartree/Particle)
 Thermal correction to Energy=                    0.050428
 Thermal correction to Enthalpy=                  0.051372
 Thermal correction to Gibbs Free Energy=         0.020848
 Sum of electronic and zero-point Energies=           -258.209004
 Sum of electronic and thermal Energies=              -258.205527
 Sum of electronic and thermal Enthalpies=            -258.204583
 Sum of electronic and thermal Free Energies=         -258.235106

                     E (Thermal)             CV                S
                      KCAL/MOL        CAL/MOL-KELVIN    CAL/MOL-KELVIN
 TOTAL                   31.644             11.350             64.242
 ELECTRONIC               0.000              0.000              0.000
 TRANSLATIONAL            0.889              2.981             38.656
 ROTATIONAL               0.889              2.981             23.862
 VIBRATIONAL             29.866              5.388              1.724
 VIBRATION  1             0.932              1.083              0.493
                       Q            LOG10(Q)             LN(Q)
 TOTAL BOT       0.257316D-09         -9.589533        -22.080715
 TOTAL V=0       0.101401D+13         12.006040         27.644930
 VIB (BOT)       0.305293D-21        -21.515283        -49.540769
 VIB (BOT)  1    0.265678D+00         -0.575645         -1.325471
 VIB (V=0)       0.120307D+01          0.080291          0.184876
 VIB (V=0)  1    0.106620D+01          0.027839          0.064103
 ELECTRONIC      0.100000D+01          0.000000          0.000000
 TRANSLATIONAL   0.230339D+08          7.362368         16.952478
 ROTATIONAL      0.365917D+05          4.563382         10.507576
 ***** Axes restored to original set *****
 -------------------------------------------------------------------
 Center     Atomic                   Forces (Hartrees/Bohr)
 Number     Number              X              Y              Z
 -------------------------------------------------------------------
    1          7           0.000305080   -0.000338275    0.000000000
    2          7           0.000058163    0.000081546    0.000000000
    3          7          -0.000159947   -0.000218163    0.000000000
    4          1          -0.000004119   -0.000012146    0.000000000
    5          7          -0.000431210    0.000362177    0.000000000
    6          6           0.000230116    0.000171268    0.000000000
    7          1           0.000001916   -0.000046406    0.000000000
 -------------------------------------------------------------------
 Cartesian Forces:  Max     0.000431210 RMS     0.000181585

 GradGradGradGradGradGradGradGradGradGradGradGradGradGradGradGradGradGrad
 Berny optimization.
 Internal  Forces:  Max     0.000424071 RMS     0.000102049
 Search for a local minimum.
 Step number   1 out of a maximum of  36
 All quantities printed in internal units (Hartrees-Bohrs-Radians)
 Second derivative matrix not updated -- analytic derivatives used.
     Eigenvalues ---    0.00802   0.02509   0.07174   0.07810   0.10176
     Eigenvalues ---    0.10598   0.19587   0.24297   0.34691   0.37992
     Eigenvalues ---    0.43532   0.46724   0.48075   0.57837   0.63086
     Eigenvalues --- 1000.000001000.000001000.000001000.000001000.00000
     Eigenvalues --- 1000.000001000.000001000.000001000.000001000.00000
     Eigenvalues --- 1000.00000
 Angle between quadratic step and forces=  16.70 degrees.
 Linear search not attempted -- first point.
 Iteration  1 RMS(Cart)=  0.00032840 RMS(Int)=  0.00000008
 Iteration  2 RMS(Cart)=  0.00000008 RMS(Int)=  0.00000003
 Variable       Old X    -DE/DX   Delta X   Delta X   Delta X     New X
                                 (Linear)    (Quad)   (Total)
    R1        2.44054   0.00002   0.00000   0.00049   0.00049   2.44103
    R2        2.58291  -0.00042   0.00000  -0.00185  -0.00185   2.58106
    R3        2.55819  -0.00007   0.00000  -0.00029  -0.00029   2.55790
    R4        1.90801  -0.00001   0.00000  -0.00001  -0.00001   1.90799
    R5        2.54657  -0.00015   0.00000  -0.00042  -0.00042   2.54615
    R6        2.48556   0.00010   0.00000   0.00056   0.00056   2.48611
    R7        2.03920   0.00002   0.00000   0.00001   0.00001   2.03920
    A1        1.94406   0.00001   0.00000   0.00013   0.00013   1.94420
    A2        1.84844  -0.00005   0.00000  -0.00041  -0.00041   1.84803
    A3        2.10260  -0.00003   0.00000  -0.00023  -0.00023   2.10236
    A4        1.89492   0.00006   0.00000   0.00044   0.00044   1.89535
    A5        2.28567  -0.00003   0.00000  -0.00020  -0.00020   2.28547
    A6        1.84377   0.00012   0.00000   0.00054   0.00054   1.84431
    A7        1.89359  -0.00014   0.00000  -0.00070  -0.00070   1.89289
    A8        2.17794   0.00011   0.00000   0.00082   0.00082   2.17876
    A9        2.21166   0.00003   0.00000  -0.00012  -0.00012   2.21154
    D1        0.00000   0.00000   0.00000   0.00000   0.00000   0.00000
    D2        0.00000   0.00000   0.00000   0.00000   0.00000   0.00000
    D3        3.14159   0.00000   0.00000   0.00000   0.00000   3.14159
    D4        0.00000   0.00000   0.00000   0.00000   0.00000   0.00000
    D5        0.00000   0.00000   0.00000   0.00000   0.00000   0.00000
    D6        3.14159   0.00000   0.00000   0.00000   0.00000   3.14159
    D7        3.14159   0.00000   0.00000   0.00000   0.00000   3.14159
    D8        0.00000   0.00000   0.00000   0.00000   0.00000   0.00000
    D9        0.00000   0.00000   0.00000   0.00000   0.00000   0.00000
   D10        3.14159   0.00000   0.00000   0.00000   0.00000   3.14159
         Item               Value     Threshold  Converged?
 Maximum Force            0.000424     0.000450     YES
 RMS     Force            0.000102     0.000300     YES
 Maximum Displacement     0.000935     0.001800     YES
 RMS     Displacement     0.000328     0.001200     YES
 Predicted change in Energy=-6.201107D-07
 Optimization completed.
    -- Stationary point found.
                         ----------------------------
                         !   Optimized Parameters   !
                         ! (Angstroms and Degrees)  !
 ------------------------                            -------------------------
 ! Name  Definition              Value          Derivative Info.             !
 -----------------------------------------------------------------------------
 ! R1    R(1,2)                  1.2915         -DE/DX =    0.               !
 ! R2    R(1,5)                  1.3668         -DE/DX =   -0.0004           !
 ! R3    R(2,3)                  1.3537         -DE/DX =   -0.0001           !
 ! R4    R(3,4)                  1.0097         -DE/DX =    0.               !
 ! R5    R(3,6)                  1.3476         -DE/DX =   -0.0001           !
 ! R6    R(5,6)                  1.3153         -DE/DX =    0.0001           !
 ! R7    R(6,7)                  1.0791         -DE/DX =    0.               !
 ! A1    A(2,1,5)              111.3866         -DE/DX =    0.               !
 ! A2    A(1,2,3)              105.9078         -DE/DX =   -0.0001           !
 ! A3    A(2,3,4)              120.4698         -DE/DX =    0.               !
 ! A4    A(2,3,6)              108.5708         -DE/DX =    0.0001           !
 ! A5    A(4,3,6)              130.9594         -DE/DX =    0.               !
 ! A6    A(1,5,6)              105.6402         -DE/DX =    0.0001           !
 ! A7    A(3,6,5)              108.4947         -DE/DX =   -0.0001           !
 ! A8    A(3,6,7)              124.7868         -DE/DX =    0.0001           !
 ! A9    A(5,6,7)              126.7186         -DE/DX =    0.               !
 ! D1    D(5,1,2,3)              0.             -DE/DX =    0.               !
 ! D2    D(2,1,5,6)              0.             -DE/DX =    0.               !
 ! D3    D(1,2,3,4)            180.             -DE/DX =    0.               !
 ! D4    D(1,2,3,6)              0.             -DE/DX =    0.               !
 ! D5    D(2,3,6,5)              0.             -DE/DX =    0.               !
 ! D6    D(2,3,6,7)            180.             -DE/DX =    0.               !
 ! D7    D(4,3,6,5)            180.             -DE/DX =    0.               !
 ! D8    D(4,3,6,7)              0.             -DE/DX =    0.               !
 ! D9    D(1,5,6,3)              0.             -DE/DX =    0.               !
 ! D10   D(1,5,6,7)            180.             -DE/DX =    0.               !
 -----------------------------------------------------------------------------
 GradGradGradGradGradGradGradGradGradGradGradGradGradGradGradGradGradGrad

 1\1\GINC-QUANTUM\Freq\RB3LYP\6-31G(d,p)\C1H2N4\RDJ3\19-Jun-2000\0\\#N
 GEOM=ALLCHECK GUESS=TCHECK RB3LYP/6-31G(D,P) FREQ\\1H tetrazole c CH-N
 H-N=N-N= casno=288948\\0,1\N,-1.1460209264,-0.2658102319,0.\N,-0.68437
 09063,0.9403362988,0.\N,0.6641362967,0.8214920058,0.\H,1.2505473344,1.
 6434179506,0.\N,-0.1355760774,-1.1862401399,0.\C,0.9795090921,-0.48867
 34863,0.\H,1.9852194067,-0.8798225629,0.\\Version=IBM-RS6000-G98RevA.6
 \State=1-A'\HF=-258.2559548\RMSD=3.491e-09\RMSF=1.816e-04\Dipole=1.924
 0879,0.8330009,0.\DipoleDeriv=-0.0541135,-0.1483999,0.0002206,-0.21613
 2,0.085733,0.0000877,0.0002877,0.0000988,-0.1530438,0.2708648,0.271292
 3,-0.0000921,0.2317231,-0.3238195,-0.0002341,-0.0004726,-0.0001372,-0.
 0993308,-0.3538408,-0.279671,0.0000075,-0.1942769,-0.2190683,0.0000275
 ,0.0008271,0.0002652,-0.150005,0.2146271,0.0366742,0.0000401,0.0262112
 ,0.2586491,0.0000641,-0.0001904,-0.0000694,0.3435375,-0.3484793,0.1229
 681,-0.000089,-0.0025343,-0.344272,0.0001801,-0.0001084,-0.0000354,-0.
 2048901,0.2211582,-0.0120845,-0.0000959,0.1491032,0.4277013,-0.0001202
 ,-0.0000327,-0.0001302,0.10551,0.0497838,0.0092209,0.0000088,0.0059059
 ,0.1150767,-0.000005,-0.0003107,0.0000082,0.1582222\Polar=38.5468056,0
 .0238291,36.4471897,0.0059996,0.0016196,15.6530467\PG=CS [SG(C1H2N4)]\
 NImag=0\\0.54483192,0.09654722,0.47508914,-0.00001406,-0.00000457,0.12
 368970,-0.13920531,-0.10913521,0.00000151,0.42065108,-0.04978064,-0.32
 097296,0.00001388,-0.03441001,0.60746702,0.00002608,0.00000878,-0.0962
 0300,-0.00000655,-0.00002657,0.11373862,-0.11275300,-0.10908155,0.0000
 0353,-0.20692650,0.02457094,-0.00000080,0.64757349,-0.03255308,-0.0625
 3957,-0.00000330,0.05914700,-0.11856620,0.00000794,0.19855427,0.923742
 62,-0.00003698,-0.00001221,0.02627142,0.00000869,0.00003733,-0.0673975
 0,0.00000493,-0.00001064,0.08984499,-0.01110899,-0.00149171,0.00000088
 ,-0.00519522,-0.03203767,-0.00000122,-0.19680408,-0.18005788,0.0000001
 0,0.19888272,0.00797238,0.00174674,0.00000052,0.00176519,0.01128356,-0
 .00000084,-0.18644199,-0.33990194,-0.00000131,0.19776171,0.33587419,0.
 00000430,0.00000154,0.00786533,-0.00000019,-0.00000419,-0.01208606,-0.
 00000334,0.00000026,-0.00641405,0.00000093,0.00000169,0.01351364,-0.15
 944181,0.05658541,-0.00000190,-0.00187486,0.08875821,-0.00000079,-0.00
 284353,-0.11226532,0.00000306,-0.00023335,-0.00102616,-0.00000081,0.48
 181248,0.01799271,-0.12265693,-0.00001638,-0.01680508,-0.12312626,0.00
 002853,0.00175678,-0.08211564,-0.00003923,0.00905625,-0.00611256,0.000
 00390,0.11005532,0.52325536,0.00001185,0.00000318,-0.08949015,-0.00000
 425,-0.00001190,0.03534563,0.00000316,0.00000503,0.02091559,-0.0000014
 9,-0.00000207,0.00740670,-0.00000027,0.00001395,0.10886378,-0.11938912
 ,0.06681425,0.00001170,-0.06728953,0.00673072,-0.00001856,-0.13298885,
 0.06973715,0.00002419,0.01485724,-0.02056249,-0.00000217,-0.30174915,-
 0.13227424,-0.00000888,0.92965625,-0.03381474,0.03081991,0.00000966,0.
 10010407,-0.04997454,-0.00001808,0.03856280,-0.31543308,0.00002566,0.0
 0694554,-0.00255302,-0.00000262,-0.12539917,-0.20414852,-0.00000900,-0
 .09470451,0.63914741,0.00000299,-0.00000258,0.01882565,0.00000225,-0.0
 0000012,0.02049777,-0.00000260,-0.00000063,-0.06041788,-0.00000143,-0.
 00000165,-0.00949397,0.00000662,0.00000797,-0.07790675,-0.00000909,-0.
 00000273,0.13776113,-0.00293370,-0.00023841,-0.00000167,-0.00015966,-0
 .00383156,0.00000183,0.00474246,-0.00256213,-0.00000399,-0.00039832,0.
 00053136,0.00000128,-0.01566977,0.01021826,-0.00000012,-0.32309684,0.1
 0830601,0.00000126,0.33751583,-0.00636384,-0.00148634,0.00000019,-0.00
 066596,-0.00611063,0.00000024,0.03207874,-0.00518621,0.00000041,-0.000
 17623,-0.00033697,-0.00000057,-0.01670829,0.01490454,0.00000082,0.1042
 5912,-0.09785818,-0.00000027,-0.11242354,0.09607378,0.00000581,0.00000
 587,0.00904105,-0.00000146,-0.00000843,0.00610453,-0.00000488,0.000001
 34,-0.00280257,0.00000224,0.00000365,-0.00079159,-0.00000590,0.0000012
 5,-0.00513480,0.00000279,-0.00000287,-0.02926595,0.00000140,-0.0000008
 1,0.02284933\\-0.00030508,0.00033828,0.,-0.00005816,-0.00008155,0.,0.0
 0015995,0.00021816,0.,0.00000412,0.00001215,0.,0.00043121,-0.00036218,
 0.,-0.00023012,-0.00017127,0.,-0.00000192,0.00004641,0.\\\@

 WAR ES EIN GOTT DER DIESE ZEICHEN SCHRIEB?
          - LUDWIG BOLTZMANN, QUOTING GOETHE, ABOUT MAXWELL'S EQUATIONS.
 Job cpu time:  0 days  0 hours 10 minutes 55.0 seconds.
 File lengths (MBytes):  RWF=   14 Int=    0 D2E=    0 Chk=    3 Scr=    1
 Normal termination of Gaussian 98.
