 Gaussian 98, Revision A.4,
 Gaussian 98:  IBM-RS6000-G98RevA.4 11-Sep-1998

 -----------------------
 #B3LYP/6-311G* opt freq
 -----------------------

 ----------------------------------------
 1H tetrazole c CH-NH-N=N-N= casno=288948
 ----------------------------------------
 Symbolic Z-matrix:
 Charge =  0 Multiplicity = 1

 SCF Done:  E(RB+HF-LYP) =  -258.308418956     A.U. after   15 cycles
 SCF Done:  E(RB+HF-LYP) =  -258.311911070     A.U. after   12 cycles
 SCF Done:  E(RB+HF-LYP) =  -258.311974079     A.U. after    9 cycles
 SCF Done:  E(RB+HF-LYP) =  -258.311978488     A.U. after    9 cycles
 SCF Done:  E(RB+HF-LYP) =  -258.311982690     A.U. after    9 cycles
 Optimization completed.
    -- Stationary point found.
 Normal termination of Gaussian 98.

 ---------------------------------------------------
 #N Geom=AllCheck Guess=TCheck RB3LYP/6-311G(d) Freq
 ---------------------------------------------------

 1H tetrazole c CH-NH-N=N-N= casno=288948
 ----------------------------------------
 Redundant internal coordinates taken from checkpointfile:
 /wrk/rdj3/Gau-12198.chk
 Charge =  0 Multiplicity = 1

                         Standard orientation:
 ---------------------------------------------------------------------
 Center     Atomic     Atomic              Coordinates (Angstroms)
 Number     Number      Type              X           Y           Z
 ---------------------------------------------------------------------
    1          7             0       -0.724079   -0.924191    0.000000
    2          7             0       -1.120346    0.299590    0.000000
    3          7             0        0.000000    1.055118    0.000000
    4          1             0       -0.062942    2.060981    0.000000
    5          7             0        0.639500   -1.005281    0.000000
    6          6             0        1.067134    0.233794    0.000000
    7          1             0        2.094612    0.559604    0.000000
 ---------------------------------------------------------------------

 SCF Done:  E(RB+HF-LYP) =  -258.311982690     A.U. after    1 cycles

  The electronic state is 1-A'.
 Alpha  occ. eigenvalues --  -14.42840 -14.39352 -14.37542 -14.34603 -10.26735
 Alpha  occ. eigenvalues --   -1.15334  -0.95519  -0.90449  -0.68890  -0.67392
 Alpha  occ. eigenvalues --   -0.60678  -0.50882  -0.50503  -0.38774  -0.33958
 Alpha  occ. eigenvalues --   -0.31929  -0.31116  -0.29839
 Alpha virt. eigenvalues --   -0.02902   0.00769   0.01426   0.05838   0.16045
 Alpha virt. eigenvalues --    0.17823   0.21512   0.26890   0.31873   0.38125
 Alpha virt. eigenvalues --    0.39079   0.42714   0.48976   0.53920   0.55262

  Exact polarizability:  38.755   1.016  38.286   0.005   0.005  17.441
 Approx polarizability:  66.790   0.466  71.155   0.000   0.000  26.320

                     1                      2                      3
                    A"                     A"                     A"
 Frequencies --   589.6745               695.6310               739.9215
 Red. masses --     1.8338                 1.8919                 8.0792
 Frc consts  --     0.3757                 0.5394                 2.6061
 IR Inten    --    91.2747                11.2432                 8.9245
 Raman Activ --     0.0000                 0.0000                 0.0000

                     4                      5                      6
                    A"                     A'                     A'
 Frequencies --   851.7598               961.8384              1015.2941
 Red. masses --     1.3678                 5.5874                 6.3990
 Frc consts  --     0.5847                 3.0455                 3.8864
 IR Inten    --    19.7128                 5.6470                 0.0135
 Raman Activ --     0.0000                 0.0000                 0.0000

                     7                      8                      9
                    A'                     A'                     A'
 Frequencies --  1031.1923              1065.9285              1145.0479
 Red. masses --     5.1230                 3.2969                 2.0512
 Frc consts  --     3.2096                 2.2071                 1.5845
 IR Inten    --    17.3762                26.6575                17.9172
 Raman Activ --     0.0000                 0.0000                 0.0000

                    10                     11                     12
                    A'                     A'                     A'
 Frequencies --  1268.7406              1295.7366              1459.9225
 Red. masses --     2.3173                10.2438                 3.1969
 Frc consts  --     2.1978                10.1332                 4.0145
 IR Inten    --     2.1944                16.8603                 8.8952
 Raman Activ --     0.0000                 0.0000                 0.0000

                    13                     14                     15
                    A'                     A'                     A'
 Frequencies --  1519.0511              3281.6228              3664.5524
 Red. masses --     2.8566                 1.1006                 1.0835
 Frc consts  --     3.8838                 6.9834                 8.5726
 IR Inten    --    18.7517                 0.3109                72.3981
 Raman Activ --     0.0000                 0.0000                 0.0000

 - Thermochemistry -
 -------------------
 Temperature   298.150 Kelvin.  Pressure   1.00000 Atm.
 Atom  1 has atomic number  7 and mass  14.00307

 Molecular mass:    70.02795 amu.
 Principal axes and moments of inertia in atomic units:
                           1         2         3
     EIGENVALUES --   171.18448 174.46273 345.64721
           X            0.89839   0.43919   0.00000
           Y           -0.43919   0.89839   0.00000
           Z            0.00000   0.00000   1.00000
 THIS MOLECULE IS AN ASYMMETRIC TOP.
 ROTATIONAL SYMMETRY NUMBER  1.
 ROTATIONAL TEMPERATURES (KELVIN)      0.50597     0.49646     0.25058
 ROTATIONAL CONSTANTS (GHZ)           10.54267    10.34457     5.22134
 Zero-point vibrational energy     123131.1 (Joules/Mol)
                                   29.42905 (Kcal/Mol)
 WARNING-- EXPLICIT CONSIDERATION OF   1 DEGREES OF FREEDOM AS
           VIBRATIONS MAY CAUSE SIGNIFICANT ERROR
 VIBRATIONAL TEMPERATURES:    848.41  1000.85  1064.58  1225.49  1383.86
          (KELVIN)           1460.77  1483.65  1533.62  1647.46  1825.42
                             1864.27  2100.49  2185.56  4721.50  5272.44

 Zero-point correction=                           0.046898 (Hartree/Particle)
 Thermal correction to Energy=                    0.050367
 Thermal correction to Enthalpy=                  0.051311
 Thermal correction to Gibbs Free Energy=         0.020806
 Sum of electronic and zero-point Energies=           -258.265085
 Sum of electronic and thermal Energies=              -258.261616
 Sum of electronic and thermal Enthalpies=            -258.260671
 Sum of electronic and thermal Free Energies=         -258.291176

                     E (Thermal)             CV                S
                      KCAL/MOL        CAL/MOL-KELVIN    CAL/MOL-KELVIN
 TOTAL                   31.606             11.328             64.203
 ELECTRONIC               0.000              0.000              0.000
 TRANSLATIONAL            0.889              2.981             38.656
 ROTATIONAL               0.889              2.981             23.850
 VIBRATIONAL             29.828              5.366              1.697
 VIBRATION  1             0.947              1.054              0.468
                       Q            LOG10(Q)             LN(Q)
 TOTAL BOT       0.269012D-09         -9.570228        -22.036264
 TOTAL V=0       0.100297D+13         12.001286         27.633983
 VIB (BOT)       0.321111D-21        -21.493345        -49.490255
 VIB (BOT)  1    0.255911D+00         -0.591911         -1.362925
 VIB (V=0)       0.119721D+01          0.078169          0.179991
 VIB (V=0)  1    0.106169D+01          0.025996          0.059858
 ELECTRONIC      0.100000D+01          0.000000          0.000000
 TRANSLATIONAL   0.230339D+08          7.362368         16.952478
 ROTATIONAL      0.363705D+05          4.560749         10.501514
 ***** Axes restored to original set *****
 -------------------------------------------------------------------
 Center     Atomic                   Forces (Hartrees/Bohr)
 Number     Number              X              Y              Z
 -------------------------------------------------------------------
    1          7           0.000152693   -0.000209473    0.000000000
    2          7          -0.000005036    0.000067465    0.000000000
    3          7          -0.000044202   -0.000238833    0.000000000
    4          1          -0.000000653   -0.000008402    0.000000000
    5          7          -0.000239163    0.000249019    0.000000000
    6          6           0.000131709    0.000175179    0.000000000
    7          1           0.000004653   -0.000034956    0.000000000
 -------------------------------------------------------------------
 Cartesian Forces:  Max     0.000249019 RMS     0.000119388

 GradGradGradGradGradGradGradGradGradGradGradGradGradGradGradGradGradGrad
 Berny optimization.
 Internal  Forces:  Max     0.000246380 RMS     0.000069395
 Search for a local minimum.
 Step number   1 out of a maximum of  36
 All quantities printed in internal units (Hartrees-Bohrs-Radians)
 Second derivative matrix not updated -- analytic derivatives used.
     Eigenvalues ---    0.00837   0.02499   0.07231   0.07833   0.10224
     Eigenvalues ---    0.10766   0.19142   0.23606   0.34255   0.37568
     Eigenvalues ---    0.43198   0.46598   0.47992   0.57542   0.63108
     Eigenvalues --- 1000.000001000.000001000.000001000.000001000.00000
     Eigenvalues --- 1000.000001000.000001000.000001000.000001000.00000
     Eigenvalues --- 1000.00000
 Angle between quadratic step and forces=  21.33 degrees.
 Linear search not attempted -- first point.
 Iteration  1 RMS(Cart)=  0.00021765 RMS(Int)=  0.00000004
 Iteration  2 RMS(Cart)=  0.00000004 RMS(Int)=  0.00000001
 Variable       Old X    -DE/DX   Delta X   Delta X   Delta X     New X
                                 (Linear)    (Quad)   (Total)
    R1        2.43083   0.00001   0.00000   0.00032   0.00032   2.43115
    R2        2.58134  -0.00025   0.00000  -0.00117  -0.00117   2.58018
    R3        2.55358   0.00001   0.00000  -0.00001  -0.00001   2.55356
    R4        1.90452  -0.00001   0.00000  -0.00001  -0.00001   1.90452
    R5        2.54472  -0.00017   0.00000  -0.00048  -0.00048   2.54424
    R6        2.47704   0.00005   0.00000   0.00036   0.00036   2.47740
    R7        2.03693   0.00002   0.00000   0.00002   0.00002   2.03695
    A1        1.94335  -0.00002   0.00000   0.00006   0.00006   1.94341
    A2        1.85096  -0.00004   0.00000  -0.00032  -0.00032   1.85065
    A3        2.10162  -0.00003   0.00000  -0.00019  -0.00019   2.10143
    A4        1.89231   0.00006   0.00000   0.00031   0.00031   1.89262
    A5        2.28925  -0.00003   0.00000  -0.00012  -0.00012   2.28913
    A6        1.84372   0.00010   0.00000   0.00037   0.00037   1.84409
    A7        1.89443  -0.00009   0.00000  -0.00042  -0.00042   1.89401
    A8        2.17856   0.00007   0.00000   0.00056   0.00056   2.17913
    A9        2.21019   0.00002   0.00000  -0.00014  -0.00014   2.21004
    D1        0.00000   0.00000   0.00000   0.00000   0.00000   0.00000
    D2        0.00000   0.00000   0.00000   0.00000   0.00000   0.00000
    D3        3.14159   0.00000   0.00000   0.00000   0.00000   3.14159
    D4        0.00000   0.00000   0.00000   0.00000   0.00000   0.00000
    D5        0.00000   0.00000   0.00000   0.00000   0.00000   0.00000
    D6        3.14159   0.00000   0.00000   0.00000   0.00000   3.14159
    D7        3.14159   0.00000   0.00000   0.00000   0.00000   3.14159
    D8        0.00000   0.00000   0.00000   0.00000   0.00000   0.00000
    D9        0.00000   0.00000   0.00000   0.00000   0.00000   0.00000
   D10        3.14159   0.00000   0.00000   0.00000   0.00000   3.14159
         Item               Value     Threshold  Converged?
 Maximum Force            0.000246     0.000450     YES
 RMS     Force            0.000069     0.000300     YES
 Maximum Displacement     0.000652     0.001800     YES
 RMS     Displacement     0.000218     0.001200     YES
 Predicted change in Energy=-2.720394D-07
 Optimization completed.
    -- Stationary point found.
                         ----------------------------
                         !   Optimized Parameters   !
                         ! (Angstroms and Degrees)  !
 ------------------------                            -------------------------
 ! Name  Definition              Value          Derivative Info.             !
 -----------------------------------------------------------------------------
 ! R1    R(1,2)                  1.2863         -DE/DX =    0.               !
 ! R2    R(1,5)                  1.366          -DE/DX =   -0.0002           !
 ! R3    R(2,3)                  1.3513         -DE/DX =    0.               !
 ! R4    R(3,4)                  1.0078         -DE/DX =    0.               !
 ! R5    R(3,6)                  1.3466         -DE/DX =   -0.0002           !
 ! R6    R(5,6)                  1.3108         -DE/DX =    0.               !
 ! R7    R(6,7)                  1.0779         -DE/DX =    0.               !
 ! A1    A(2,1,5)              111.3455         -DE/DX =    0.               !
 ! A2    A(1,2,3)              106.0523         -DE/DX =    0.               !
 ! A3    A(2,3,4)              120.4139         -DE/DX =    0.               !
 ! A4    A(2,3,6)              108.4216         -DE/DX =    0.0001           !
 ! A5    A(4,3,6)              131.1645         -DE/DX =    0.               !
 ! A6    A(1,5,6)              105.6375         -DE/DX =    0.0001           !
 ! A7    A(3,6,5)              108.5431         -DE/DX =   -0.0001           !
 ! A8    A(3,6,7)              124.8225         -DE/DX =    0.0001           !
 ! A9    A(5,6,7)              126.6344         -DE/DX =    0.               !
 ! D1    D(5,1,2,3)              0.             -DE/DX =    0.               !
 ! D2    D(2,1,5,6)              0.             -DE/DX =    0.               !
 ! D3    D(1,2,3,4)            180.             -DE/DX =    0.               !
 ! D4    D(1,2,3,6)              0.             -DE/DX =    0.               !
 ! D5    D(2,3,6,5)              0.             -DE/DX =    0.               !
 ! D6    D(2,3,6,7)            180.             -DE/DX =    0.               !
 ! D7    D(4,3,6,5)            180.             -DE/DX =    0.               !
 ! D8    D(4,3,6,7)              0.             -DE/DX =    0.               !
 ! D9    D(1,5,6,3)              0.             -DE/DX =    0.               !
 ! D10   D(1,5,6,7)            180.             -DE/DX =    0.               !
 -----------------------------------------------------------------------------
 GradGradGradGradGradGradGradGradGradGradGradGradGradGradGradGradGradGrad

 1\1\GINC-WOLFRAM\Freq\RB3LYP\6-311G(d)\C1H2N4\RDJ3\09-Mar-2000\0\\#N G
 EOM=ALLCHECK GUESS=TCHECK RB3LYP/6-311G(D) FREQ\\1H tetrazole c CH-NH-
 N=N-N= casno=288948\\0,1\N,-1.144022807,-0.2638768446,0.\N,-0.68321823
 03,0.9370926282,0.\N,0.6630585064,0.8207477787,0.\H,1.2462033994,1.642
 7360034,0.\N,-0.1342900951,-1.1838565221,0.\C,0.9770158841,-0.48874785
 29,0.\H,1.981009678,-0.8809981674,0.\\Version=IBM-RS6000-G98RevA.4\Sta
 te=1-A'\HF=-258.3119827\RMSD=2.816e-09\RMSF=1.194e-04\Dipole=1.9465499
 ,0.8498057,0.\DipoleDeriv=-0.0539025,-0.1566208,0.0000011,-0.2199636,0
 .0871786,0.0003089,-0.0003628,-0.0000479,-0.1540234,0.2700665,0.272520
 6,0.000081,0.2401283,-0.3231893,-0.0002109,0.0001835,0.0000467,-0.0933
 991,-0.3440822,-0.2807954,-0.000118,-0.1933643,-0.2020231,-0.0000506,0
 .0003808,0.0000556,-0.1619032,0.2096577,0.0284399,-0.0000692,0.0122695
 ,0.23832,-0.0000455,-0.0001687,-0.0000276,0.3530701,-0.354175,0.121506
 4,-0.0000754,0.0009502,-0.3525778,-0.0000806,0.0000543,0.0000307,-0.20
 75316,0.2350127,0.0002041,0.000232,0.1404131,0.436645,0.0000944,-0.000
 1112,-0.0000815,0.0921037,0.0374234,0.0147449,-0.0000515,0.019567,0.11
 56463,-0.0000157,0.000024,0.000024,0.1716835\Polar=39.5631066,-0.01589
 85,37.4779227,0.0069376,0.0005037,17.4412134\PG=CS [SG(C1H2N4)]\NImag=
 0\\0.54364689,0.10154833,0.46547531,0.00002073,0.00001075,0.12457951,-
 0.14015235,-0.10614977,-0.00000437,0.41287537,-0.04788646,-0.31681974,
 -0.00002188,-0.03637738,0.60767956,-0.00000516,-0.00000600,-0.09711404
 ,0.00000048,0.00000747,0.11489485,-0.11449255,-0.11033845,-0.00000400,
 -0.19771462,0.02319501,0.00000248,0.64211870,-0.03339383,-0.06208421,-
 0.00000188,0.05658146,-0.12273369,0.00000155,0.20464910,0.91923814,-0.
 00001197,-0.00001315,0.02644843,-0.00000023,0.00001712,-0.06809393,0.0
 0000686,0.00000126,0.09199871,-0.01119143,-0.00159498,-0.00000155,-0.0
 0614100,-0.03302089,0.00000077,-0.19703642,-0.17694931,0.00000183,0.19
 945959,0.00781494,0.00148292,0.00000072,0.00199727,0.01254587,0.000000
 02,-0.18556993,-0.34155551,0.00000001,0.19635387,0.33760522,0.00000026
 ,0.00000810,0.00793197,0.00000275,-0.00000505,-0.01212707,-0.00000419,
 -0.00000094,-0.00733440,-0.00000180,-0.00000133,0.01416295,-0.15390348
 ,0.04923111,-0.00000004,-0.00085749,0.08986829,0.00000050,-0.00226435,
 -0.11321040,0.00000153,-0.00070777,-0.00110449,-0.00000195,0.47089174,
 0.01235853,-0.11876286,0.00002376,-0.01648114,-0.12370796,-0.00000533,
 0.00050477,-0.08439307,-0.00001063,0.00895401,-0.00619012,-0.00000293,
 0.11360095,0.52218487,-0.00000584,-0.00000076,-0.09003325,0.00000185,0
 .00000469,0.03545879,-0.00000012,0.00000036,0.02105413,0.00000018,-0.0
 0000021,0.00768849,-0.00000099,-0.00000801,0.10995590,-0.12099715,0.06
 758364,-0.00000850,-0.06774126,0.00805622,-0.00000088,-0.13585108,0.06
 500646,0.00000043,0.01607525,-0.02013558,0.00000603,-0.29736479,-0.128
 95165,0.00000419,0.92515846,-0.03433372,0.03203166,-0.00001072,0.10126
 220,-0.05085256,0.00000235,0.03580174,-0.30366468,0.00000486,0.0064306
 7,-0.00353608,0.00000212,-0.12176049,-0.20370409,0.00000385,-0.0949460
 4,0.62701369,0.00000819,0.00000028,0.01910515,-0.00000209,-0.00000594,
 0.02098713,-0.00000201,0.00000043,-0.06140441,0.00000130,0.00000182,-0
 .00948072,0.00000214,0.00001044,-0.07890938,-0.00000736,-0.00000741,0.
 13874192,-0.00290994,-0.00027989,-0.00000226,-0.00026865,-0.00383479,0
 .00000180,0.00524030,-0.00268347,0.00000156,-0.00045821,0.00064392,-0.
 00000110,-0.01579387,0.01001452,0.00000074,-0.31927946,0.10754566,-0.0
 0000018,0.33346984,-0.00610780,-0.00132307,-0.00000074,-0.00083264,-0.
 00611149,-0.00000007,0.03175776,-0.00480699,0.00000054,-0.00017335,-0.
 00035231,0.00000002,-0.01662498,0.01457323,0.00000008,0.10338695,-0.09
 728794,0.00000037,-0.11140595,0.09530855,-0.00000622,0.00000078,0.0090
 8223,0.00000162,0.00000358,0.00599427,0.00000098,-0.00000079,-0.002668
 53,-0.00000072,-0.00000104,-0.00084121,-0.00000118,-0.00000732,-0.0052
 1468,0.00000608,0.00000497,-0.02903970,-0.00000055,-0.00000019,0.02268
 762\\-0.00015269,0.00020947,0.,0.00000504,-0.00006747,0.,0.00004420,0.
 00023883,0.,0.00000065,0.00000840,0.,0.00023916,-0.00024902,0.,-0.0001
 3171,-0.00017518,0.,-0.00000465,0.00003496,0.\\\@

 WE LOSE BECAUSE WE WIN

 GAMBLERS,

 RECOLLECTING WHICH,

 TOSS THEIR DICE AGAIN....

                          EMILY DICKINSON  BOLTS OF MELODY NO. 533
 Job cpu time:  0 days  0 hours 17 minutes 37.2 seconds.
 File lengths (MBytes):  RWF=   14 Int=    0 D2E=    0 Chk=    3 Scr=    1
 Normal termination of Gaussian 98.
