 Gaussian 98, Revision A.7,
 Gaussian 98:  SGI64-G98RevA.7 11-Apr-1999

 ---------------------
 #B3LYP/6-31G opt freq
 ---------------------

 ----------------------------------------
 1H tetrazole c CH-NH-N=N-N= casno=288948
 ----------------------------------------
 Symbolic Z-matrix:
 Charge =  0 Multiplicity = 1

 SCF Done:  E(RB+HF-LYP) =  -258.118961647     A.U. after   15 cycles
 SCF Done:  E(RB+HF-LYP) =  -258.132617477     A.U. after   14 cycles
 SCF Done:  E(RB+HF-LYP) =  -258.133031795     A.U. after   13 cycles
 SCF Done:  E(RB+HF-LYP) =  -258.133317782     A.U. after   11 cycles
 SCF Done:  E(RB+HF-LYP) =  -258.133340775     A.U. after    9 cycles
 SCF Done:  E(RB+HF-LYP) =  -258.133345707     A.U. after    9 cycles
 SCF Done:  E(RB+HF-LYP) =  -258.133346914     A.U. after    8 cycles
 Optimization completed.
    -- Stationary point found.
 Normal termination of Gaussian 98.

 -----------------------------------------------
 #N Geom=AllCheck Guess=TCheck RB3LYP/6-31G Freq
 -----------------------------------------------

 1H tetrazole c CH-NH-N=N-N= casno=288948
 ----------------------------------------
 Redundant internal coordinates taken from checkpointfile:
 /tmp/Gau-212343.chk
 Charge =  0 Multiplicity = 1

                         Standard orientation:
 ---------------------------------------------------------------------
 Center     Atomic     Atomic              Coordinates (Angstroms)
 Number     Number      Type              X           Y           Z
 ---------------------------------------------------------------------
    1          7             0       -0.738005   -0.953191    0.000000
    2          7             0       -1.151572    0.295873    0.000000
    3          7             0        0.000000    1.072883    0.000000
    4          1             0       -0.067176    2.077522    0.000000
    5          7             0        0.669158   -1.012586    0.000000
    6          6             0        1.083731    0.253712    0.000000
    7          1             0        2.107729    0.579348    0.000000
 ---------------------------------------------------------------------

 SCF Done:  E(RB+HF-LYP) =  -258.133346914     A.U. after    1 cycles

  The electronic state is 1-A'.
 Alpha  occ. eigenvalues --  -14.45686 -14.43530 -14.41605 -14.38690 -10.29815
 Alpha  occ. eigenvalues --   -1.16734  -0.96484  -0.92534  -0.69542  -0.68125
 Alpha  occ. eigenvalues --   -0.61315  -0.51356  -0.50407  -0.38108  -0.34377
 Alpha  occ. eigenvalues --   -0.32659  -0.31088  -0.30063
 Alpha virt. eigenvalues --   -0.04636  -0.00744   0.04625   0.08856   0.14585
 Alpha virt. eigenvalues --    0.17613   0.23470   0.29782   0.36629   0.51093
 Alpha virt. eigenvalues --    0.53046   0.60556   0.64158   0.65189   0.66233

  Exact polarizability:  37.745   1.095  37.496   0.003   0.000  13.823
 Approx polarizability:  68.319  -0.152  74.301   0.000   0.000  18.089

                     1                      2                      3
                    A"                     A"                     A"
 Frequencies --   662.4652               710.0903               719.5964
 Red. masses --     4.3875                 7.4289                 1.1799
 Frc consts  --     1.1345                 2.2070                 0.3600
 IR Inten    --    24.0693                 3.9069               138.4733
 Raman Activ --     0.0000                 0.0000                 0.0000

                     4                      5                      6
                    A'                     A"                     A'
 Frequencies --   837.6732               879.7897               922.2879
 Red. masses --     9.1542                 1.3828                 6.1652
 Frc consts  --     3.7846                 0.6306                 3.0898
 IR Inten    --     8.9864                15.5221                18.2971
 Raman Activ --     0.0000                 0.0000                 0.0000

                     7                      8                      9
                    A'                     A'                     A'
 Frequencies --  1004.7423              1034.5888              1141.6580
 Red. masses --     6.3611                 4.9211                 2.2293
 Frc consts  --     3.7835                 3.1035                 1.7119
 IR Inten    --     3.9000                12.4588                14.4455
 Raman Activ --     0.0000                 0.0000                 0.0000

                    10                     11                     12
                    A'                     A'                     A'
 Frequencies --  1190.4185              1242.9952              1409.8304
 Red. masses --     4.0974                 2.6419                 2.8976
 Frc consts  --     3.4210                 2.4049                 3.3933
 IR Inten    --    12.6676                 2.2739                 4.3751
 Raman Activ --     0.0000                 0.0000                 0.0000

                    13                     14                     15
                    A'                     A'                     A'
 Frequencies --  1483.3652              3355.1255              3704.0209
 Red. masses --     2.1320                 1.1018                 1.0844
 Frc consts  --     2.7639                 7.3078                 8.7655
 IR Inten    --    36.6230                 4.2067                96.4085
 Raman Activ --     0.0000                 0.0000                 0.0000

 - Thermochemistry -
 -------------------
 Temperature   298.150 Kelvin.  Pressure   1.00000 Atm.
 Atom  1 has atomic number  7 and mass  14.00307

 Molecular mass:    70.02795 amu.
 Principal axes and moments of inertia in atomic units:
                           1         2         3
     EIGENVALUES --   177.76275 182.09242 359.85516
           X            0.99686   0.07913   0.00000
           Y           -0.07913   0.99686   0.00000
           Z            0.00000   0.00000   1.00000
 THIS MOLECULE IS AN ASYMMETRIC TOP.
 ROTATIONAL SYMMETRY NUMBER  1.
 ROTATIONAL TEMPERATURES (KELVIN)      0.48724     0.47566     0.24069
 ROTATIONAL CONSTANTS (GHZ)           10.15253     9.91113     5.01519
 Zero-point vibrational energy     121412.9 (Joules/Mol)
                                   29.01838 (Kcal/Mol)
 VIBRATIONAL TEMPERATURES:    953.13  1021.66  1035.33  1205.22  1265.81
          (KELVIN)           1326.96  1445.59  1488.53  1642.58  1712.74
                             1788.38  2028.42  2134.22  4827.25  5329.23

 Zero-point correction=                           0.046244 (Hartree/Particle)
 Thermal correction to Energy=                    0.049728
 Thermal correction to Enthalpy=                  0.050672
 Thermal correction to Gibbs Free Energy=         0.020098
 Sum of electronic and zero-point Energies=           -258.087103
 Sum of electronic and thermal Energies=              -258.083619
 Sum of electronic and thermal Enthalpies=            -258.082674
 Sum of electronic and thermal Free Energies=         -258.113249

                     E (Thermal)             CV                S
                      KCAL/MOL        CAL/MOL-KELVIN    CAL/MOL-KELVIN
 TOTAL                   31.205             11.586             64.349
 ELECTRONIC               0.000              0.000              0.000
 TRANSLATIONAL            0.889              2.981             38.656
 ROTATIONAL               0.889              2.981             23.970
 VIBRATIONAL             29.427              5.625              1.723
                       Q            LOG10(Q)             LN(Q)
 TOTAL BOT       0.569528D-09         -9.244485        -21.286212
 TOTAL V=0       0.106172D+13         12.026009         27.690910
 VIB (BOT)       0.639983D-21        -21.193832        -48.800601
 VIB (V=0)       0.119306D+01          0.076662          0.176521
 ELECTRONIC      0.100000D+01          0.000000          0.000000
 TRANSLATIONAL   0.230339D+08          7.362368         16.952478
 ROTATIONAL      0.386349D+05          4.586980         10.561911
 ***** Axes restored to original set *****
 -------------------------------------------------------------------
 Center     Atomic                   Forces (Hartrees/Bohr)
 Number     Number              X              Y              Z
 -------------------------------------------------------------------
    1          7          -0.000061030    0.000433873    0.000000000
    2          7          -0.000380420   -0.000318808    0.000000000
    3          7           0.000206841    0.000234466    0.000000000
    4          1           0.000018833    0.000019822    0.000000000
    5          7          -0.000025508   -0.000198176    0.000000000
    6          6           0.000238884   -0.000177028    0.000000000
    7          1           0.000002401    0.000005851    0.000000000
 -------------------------------------------------------------------
 Cartesian Forces:  Max     0.000433873 RMS     0.000177978

 GradGradGradGradGradGradGradGradGradGradGradGradGradGradGradGradGradGrad
 Berny optimization.
 Internal  Forces:  Max     0.000292658 RMS     0.000110938
 Search for a local minimum.
 Step number   1 out of a maximum of  36
 All quantities printed in internal units (Hartrees-Bohrs-Radians)
 Second derivative matrix not updated -- analytic derivatives used.
     Eigenvalues ---    0.01125   0.02706   0.07281   0.07738   0.10166
     Eigenvalues ---    0.10926   0.14937   0.18512   0.31748   0.37472
     Eigenvalues ---    0.39605   0.44225   0.48826   0.54673   0.61852
     Eigenvalues --- 1000.000001000.000001000.000001000.000001000.00000
     Eigenvalues --- 1000.000001000.000001000.000001000.000001000.00000
     Eigenvalues --- 1000.00000
 Angle between quadratic step and forces=  27.07 degrees.
 Linear search not attempted -- first point.
 Iteration  1 RMS(Cart)=  0.00033025 RMS(Int)=  0.00000007
 Iteration  2 RMS(Cart)=  0.00000006 RMS(Int)=  0.00000003
 Variable       Old X    -DE/DX   Delta X   Delta X   Delta X     New X
                                 (Linear)    (Quad)   (Total)
    R1        2.48641  -0.00029   0.00000  -0.00134  -0.00134   2.48507
    R2        2.66152   0.00022   0.00000   0.00126   0.00126   2.66278
    R3        2.62520   0.00028   0.00000   0.00122   0.00122   2.62642
    R4        1.90273   0.00003   0.00000   0.00005   0.00005   1.90278
    R5        2.56719   0.00022   0.00000   0.00051   0.00051   2.56770
    R6        2.51794   0.00017   0.00000   0.00018   0.00018   2.51812
    R7        2.03056   0.00000   0.00000   0.00001   0.00001   2.03057
    A1        1.93272   0.00005   0.00000   0.00025   0.00025   1.93297
    A2        1.84463   0.00008   0.00000   0.00031   0.00031   1.84493
    A3        2.09760   0.00003   0.00000   0.00013   0.00013   2.09773
    A4        1.90077  -0.00006   0.00000  -0.00044  -0.00044   1.90033
    A5        2.28482   0.00003   0.00000   0.00031   0.00031   2.28512
    A6        1.84500   0.00001   0.00000  -0.00030  -0.00030   1.84471
    A7        1.90166  -0.00009   0.00000   0.00018   0.00018   1.90184
    A8        2.18645   0.00004   0.00000  -0.00015  -0.00015   2.18630
    A9        2.19508   0.00005   0.00000  -0.00003  -0.00003   2.19505
    D1        0.00000   0.00000   0.00000   0.00000   0.00000   0.00000
    D2        0.00000   0.00000   0.00000   0.00000   0.00000   0.00000
    D3        3.14159   0.00000   0.00000   0.00000   0.00000   3.14159
    D4        0.00000   0.00000   0.00000   0.00000   0.00000   0.00000
    D5        0.00000   0.00000   0.00000   0.00000   0.00000   0.00000
    D6        3.14159   0.00000   0.00000   0.00000   0.00000   3.14159
    D7        3.14159   0.00000   0.00000   0.00000   0.00000   3.14159
    D8        0.00000   0.00000   0.00000   0.00000   0.00000   0.00000
    D9        0.00000   0.00000   0.00000   0.00000   0.00000   0.00000
   D10        3.14159   0.00000   0.00000   0.00000   0.00000   3.14159
         Item               Value     Threshold  Converged?
 Maximum Force            0.000293     0.000450     YES
 RMS     Force            0.000111     0.000300     YES
 Maximum Displacement     0.000864     0.001800     YES
 RMS     Displacement     0.000330     0.001200     YES
 Predicted change in Energy=-6.059854D-07
 Optimization completed.
    -- Stationary point found.
                         ----------------------------
                         !   Optimized Parameters   !
                         ! (Angstroms and Degrees)  !
 ------------------------                            -------------------------
 ! Name  Definition              Value          Derivative Info.             !
 -----------------------------------------------------------------------------
 ! R1    R(1,2)                  1.3157         -DE/DX =   -0.0003           !
 ! R2    R(1,5)                  1.4084         -DE/DX =    0.0002           !
 ! R3    R(2,3)                  1.3892         -DE/DX =    0.0003           !
 ! R4    R(3,4)                  1.0069         -DE/DX =    0.               !
 ! R5    R(3,6)                  1.3585         -DE/DX =    0.0002           !
 ! R6    R(5,6)                  1.3324         -DE/DX =    0.0002           !
 ! R7    R(6,7)                  1.0745         -DE/DX =    0.               !
 ! A1    A(2,1,5)              110.7367         -DE/DX =    0.               !
 ! A2    A(1,2,3)              105.6893         -DE/DX =    0.0001           !
 ! A3    A(2,3,4)              120.1836         -DE/DX =    0.               !
 ! A4    A(2,3,6)              108.9061         -DE/DX =   -0.0001           !
 ! A5    A(4,3,6)              130.9103         -DE/DX =    0.               !
 ! A6    A(1,5,6)              105.711          -DE/DX =    0.               !
 ! A7    A(3,6,5)              108.9569         -DE/DX =   -0.0001           !
 ! A8    A(3,6,7)              125.2742         -DE/DX =    0.               !
 ! A9    A(5,6,7)              125.7689         -DE/DX =    0.0001           !
 ! D1    D(5,1,2,3)              0.             -DE/DX =    0.               !
 ! D2    D(2,1,5,6)              0.             -DE/DX =    0.               !
 ! D3    D(1,2,3,4)            180.             -DE/DX =    0.               !
 ! D4    D(1,2,3,6)              0.             -DE/DX =    0.               !
 ! D5    D(2,3,6,5)              0.             -DE/DX =    0.               !
 ! D6    D(2,3,6,7)            180.             -DE/DX =    0.               !
 ! D7    D(4,3,6,5)            180.             -DE/DX =    0.               !
 ! D8    D(4,3,6,7)              0.             -DE/DX =    0.               !
 ! D9    D(1,5,6,3)              0.             -DE/DX =    0.               !
 ! D10   D(1,5,6,7)            180.             -DE/DX =    0.               !
 -----------------------------------------------------------------------------
 GradGradGradGradGradGradGradGradGradGradGradGradGradGradGradGradGradGrad

 1\1\ NATIONAL INSTITUTE OF STANDARDS AND TECHNOLOGY-NEVA\Freq\RB3LYP\6
 -31G\C1H2N4\RDJ3\06-Apr-2000\0\\#N GEOM=ALLCHECK GUESS=TCHECK RB3LYP/6
 -31G FREQ\\1H tetrazole c CH-NH-N=N-N= casno=288948\\0,1\N,-1.17498673
 57,-0.2695004686,0.\N,-0.7031790891,0.958748472,0.\N,0.6800224169,0.82
 98473056,0.\H,1.2648311057,1.6494880757,0.\N,-0.1242282228,-1.20733945
 62,0.\C,0.9990481244,-0.4906589009,0.\H,1.9974815635,-0.8878256399,0.\
 \Version=SGI64-G98RevA.7\State=1-A'\HF=-258.1333469\RMSD=7.374e-09\RMS
 F=1.780e-04\Dipole=2.0950591,0.8794358,0.\DipoleDeriv=0.0630633,-0.100
 54,0.0000635,-0.1979701,0.0070857,0.0003164,0.0000917,-0.000361,-0.172
 7813,0.3012645,0.1978513,-0.0001158,0.2020893,-0.2666157,-0.0001707,-0
 .0000888,0.000017,-0.0783353,-0.4476871,-0.2719427,-0.0002087,-0.19367
 61,-0.2955889,-0.0001623,0.0000796,0.0000565,-0.2515296,0.2333684,0.02
 80487,0.0001566,0.0313588,0.267736,0.0002463,-0.0000318,0.0000127,0.41
 2834,-0.416759,0.1337205,0.0000995,-0.0072417,-0.2058706,-0.0001237,-0
 .0001522,0.0005632,-0.1956146,0.1841981,0.0015251,0.0001282,0.1678363,
 0.3564726,-0.0001533,0.0000907,-0.0002533,0.095267,0.0825519,0.0113373
 ,-0.0001233,-0.0023967,0.136781,0.0000473,0.0000108,-0.000035,0.19016\
 Polar=38.7188544,0.0932094,36.5227862,0.0021938,-0.0013968,13.822727\P
 G=CS [SG(C1H2N4)]\NImag=0\\0.47022783,0.10216777,0.36194121,0.00000257
 ,-0.00002834,0.11442847,-0.10925908,-0.08922197,0.00000103,0.32989254,
 -0.02034355,-0.25005133,0.00002012,-0.04492642,0.52906564,0.00001061,0
 .00000862,-0.08917113,-0.00000877,-0.00000830,0.10731296,-0.11794598,-
 0.09846235,0.00001310,-0.13547669,0.00755750,-0.00000098,0.58635468,-0
 .03006349,-0.06072029,0.00000851,0.04429590,-0.11107894,-0.00000429,0.
 22469052,0.90074590,-0.00000960,-0.00000008,0.02449996,0.00000582,0.00
 000249,-0.06973012,-0.00000510,-0.00000022,0.11069919,-0.00977736,-0.0
 0033738,-0.00000805,-0.00526341,-0.03305526,0.00000123,-0.20399336,-0.
 18759763,0.00000310,0.20453085,0.00924152,0.00167312,-0.00001243,0.005
 64042,0.01174083,0.00000258,-0.19445535,-0.34728215,0.00000452,0.20080
 273,0.34330058,0.00000168,0.00000164,0.00693326,-0.00000062,-0.0000016
 3,-0.00846475,0.00000093,-0.00000007,-0.01664101,-0.00000078,-0.000001
 24,0.01764543,-0.10731816,0.02937931,0.00000066,-0.01231667,0.08145519
 ,-0.00000794,0.00175750,-0.10794717,0.00000969,-0.00096382,0.00002538,
 -0.00000244,0.40892994,-0.02479556,-0.07499432,0.00001641,-0.01457222,
 -0.12210990,-0.00000023,-0.00068691,-0.08672103,-0.00000317,0.00941209
 ,-0.00451989,-0.00000057,0.12551704,0.45553996,-0.00000821,0.00004678,
 -0.08382786,0.00000295,-0.00003024,0.03253547,-0.00002584,-0.00001663,
 0.02177058,0.00001513,0.00002319,0.00752362,0.00001163,-0.00002543,0.1
 0472153,-0.12457009,0.05671093,-0.00001828,-0.06798348,0.01416736,0.00
 000633,-0.13714190,0.06088507,-0.00000092,0.01569471,-0.02199540,0.000
 00090,-0.27577507,-0.10521329,0.00002261,0.92718445,-0.03045675,0.0236
 1645,-0.00000188,0.10086739,-0.05214618,0.00000120,0.02830297,-0.28802
 917,-0.00000434,0.01104170,-0.00440883,0.00000200,-0.10889549,-0.18032
 758,-0.00000311,-0.11707124,0.60015171,0.00000182,-0.00002541,0.018128
 48,-0.00000063,0.00001601,0.02198834,0.00001559,0.00001163,-0.06924458
 ,-0.00000891,-0.00001400,-0.00611946,-0.00001061,0.00001043,-0.0783272
 3,-0.00000844,0.00000510,0.14539101,-0.00135717,-0.00023631,0.00000896
 ,0.00040679,-0.00485480,-0.00000047,0.00644573,-0.00426321,-0.00000299
 ,-0.00022762,0.00074070,0.00000033,-0.01431371,0.01033887,-0.00001828,
 -0.33740862,0.11621143,0.00001119,0.34645461,-0.00574994,-0.00146485,-
 0.00000240,-0.00208308,-0.00542012,0.00000042,0.03305362,-0.00691430,0
 .00000080,-0.00026624,-0.00050366,-0.00000014,-0.01953426,0.01313276,0
 .00000545,0.11251659,-0.09885640,-0.00000376,-0.11793668,0.10002657,0.
 00000112,-0.00000322,0.00900883,0.00000023,0.00000154,0.00552924,0.000
 00230,0.00000107,-0.00135403,-0.00000172,-0.00000262,-0.00087709,-0.00
 000099,0.00000256,-0.00439612,-0.00000219,0.00000102,-0.03181654,0.000
 00125,-0.00000036,0.02390571\\0.00006103,-0.00043387,0.,0.00038042,0.0
 0031881,0.,-0.00020684,-0.00023447,0.,-0.00001883,-0.00001982,0.,0.000
 02551,0.00019818,0.,-0.00023888,0.00017703,0.,-0.00000240,-0.00000585,
 0.\\\@

 HOW IS IT THAT THE SKY FEEDS THE STARS?

                           -- LUCRETIUS
 Job cpu time:  0 days  0 hours  1 minutes 14.5 seconds.
 File lengths (MBytes):  RWF=   10 Int=    0 D2E=    0 Chk=    4 Scr=    1
 Normal termination of Gaussian 98.
