 Gaussian 98, Revision A.6,
 Gaussian 98:  SGI-G98RevA.6 19-Oct-1998

 -----------------------
 #BLYP/6-31+G** opt freq
 -----------------------

 -------------------------------
 1H pyrazole C3H4N2 casno=288131
 -------------------------------
 Symbolic Z-matrix:
 Charge =  0 Multiplicity = 1

 SCF Done:  E(RB-LYP) =  -226.057677558     A.U. after   13 cycles
 SCF Done:  E(RB-LYP) =  -226.123163218     A.U. after   12 cycles
 SCF Done:  E(RB-LYP) =  -226.140766055     A.U. after   12 cycles
 SCF Done:  E(RB-LYP) =  -226.141092873     A.U. after   10 cycles
 SCF Done:  E(RB-LYP) =  -226.141219380     A.U. after   10 cycles
 SCF Done:  E(RB-LYP) =  -226.141239418     A.U. after    9 cycles
 SCF Done:  E(RB-LYP) =  -226.141241154     A.U. after    8 cycles
 Optimization completed.
    -- Stationary point found.
 Normal termination of Gaussian 98.

 ----------------------------------------------------
 #N Geom=AllCheck Guess=TCheck RBLYP/6-31+G(d,p) Freq
 ----------------------------------------------------

 1H pyrazole C3H4N2 casno=288131
 -------------------------------
 Redundant internal coordinates taken from checkpointfile:
 /wrk/Gau-6952229.chk
 Charge =  0 Multiplicity = 1

                         Standard orientation:
 ---------------------------------------------------------------------
 Center     Atomic     Atomic              Coordinates (Angstroms)
 Number     Number      Type              X           Y           Z
 ---------------------------------------------------------------------
    1          1             0        2.124205    0.738654    0.000000
    2          6             0        1.124607    0.311641    0.000000
    3          1             0        1.279561   -1.908089    0.000000
    4          6             0        0.672017   -1.007221    0.000000
    5          1             0       -1.487475   -1.702327    0.000000
    6          6             0       -0.748163   -0.903966    0.000000
    7          7             0       -1.164909    0.379769    0.000000
    8          1             0       -0.052691    2.114241    0.000000
    9          7             0        0.000000    1.099488    0.000000
 ---------------------------------------------------------------------

 SCF Done:  E(RB-LYP) =  -226.141241154     A.U. after    1 cycles

  The electronic state is 1-A'.
 Alpha  occ. eigenvalues --  -14.11025 -14.05190  -9.97225  -9.95023  -9.93212
 Alpha  occ. eigenvalues --   -0.94550  -0.73738  -0.70021  -0.54994  -0.53219
 Alpha  occ. eigenvalues --   -0.48664  -0.39559  -0.38142  -0.38092  -0.35262
 Alpha  occ. eigenvalues --   -0.24709  -0.22721  -0.21833
 Alpha virt. eigenvalues --   -0.02532  -0.01490   0.01302   0.01819   0.01964
 Alpha virt. eigenvalues --    0.03899   0.04926   0.05149   0.07012   0.08682
 Alpha virt. eigenvalues --    0.09931   0.10326   0.10451   0.14033   0.15197

  Exact polarizability:  57.296   0.849  56.141   0.028  -0.020  32.950
 Approx polarizability: 109.863   0.593 109.363   0.000   0.000  50.540

                     1                      2                      3
                    A"                     A"                     A"
 Frequencies --   483.9296               609.8037               660.1715
 Red. masses --     1.7059                 2.6144                 2.8955
 Frc consts  --     0.2354                 0.5728                 0.7435
 IR Inten    --    54.1458                 0.0515                18.0641
 Raman Activ --     0.0000                 0.0000                 0.0000

                     4                      5                      6
                    A"                     A"                     A"
 Frequencies --   716.3014               795.7189               848.7132
 Red. masses --     1.2222                 1.2067                 1.2981
 Frc consts  --     0.3695                 0.4502                 0.5509
 IR Inten    --    99.1293                14.3911                 6.6068
 Raman Activ --     0.0000                 0.0000                 0.0000

                     7                      8                      9
                    A'                     A'                     A'
 Frequencies --   889.7730               905.2430              1001.0356
 Red. masses --     5.5676                 4.3150                 2.0051
 Frc consts  --     2.5970                 2.0834                 1.1838
 IR Inten    --     7.9707                 4.4771                36.0434
 Raman Activ --     0.0000                 0.0000                 0.0000

                    10                     11                     12
                    A'                     A'                     A'
 Frequencies --  1026.9141              1106.1488              1127.8680
 Red. masses --     1.4328                 1.8723                 2.5235
 Frc consts  --     0.8902                 1.3498                 1.8913
 IR Inten    --     8.1939                18.8644                 0.2575
 Raman Activ --     0.0000                 0.0000                 0.0000

                    13                     14                     15
                    A'                     A'                     A'
 Frequencies --  1230.1860              1327.5212              1379.1098
 Red. masses --     2.0875                 2.1172                 3.4264
 Frc consts  --     1.8613                 2.1983                 3.8396
 IR Inten    --     1.7208                 5.8317                 9.5563
 Raman Activ --     0.0000                 0.0000                 0.0000

                    16                     17                     18
                    A'                     A'                     A'
 Frequencies --  1422.8179              1506.8706              3177.3407
 Red. masses --     2.4803                 2.7396                 1.0909
 Frc consts  --     2.9583                 3.6652                 6.4890
 IR Inten    --     7.6093                 5.6219                 2.9793
 Raman Activ --     0.0000                 0.0000                 0.0000

                    19                     20                     21
                    A'                     A'                     A'
 Frequencies --  3187.8482              3204.3378              3570.8945
 Red. masses --     1.0933                 1.1055                 1.0815
 Frc consts  --     6.5459                 6.6880                 8.1251
 IR Inten    --     3.2786                 1.3742                69.4230
 Raman Activ --     0.0000                 0.0000                 0.0000

 - Thermochemistry -
 -------------------
 Temperature   298.150 Kelvin.  Pressure   1.00000 Atm.
 Atom  1 has atomic number  1 and mass   1.00783

 Molecular mass:    68.03745 amu.
 Principal axes and moments of inertia in atomic units:
                           1         2         3
     EIGENVALUES --   191.32124 195.86972 387.19095
           X            0.93773   0.34737   0.00000
           Y           -0.34737   0.93773   0.00000
           Z            0.00000   0.00000   1.00000
 THIS MOLECULE IS AN ASYMMETRIC TOP.
 ROTATIONAL SYMMETRY NUMBER  1.
 ROTATIONAL TEMPERATURES (KELVIN)      0.45271     0.44220     0.22370
 ROTATIONAL CONSTANTS (GHZ)            9.43304     9.21399     4.66111
 Zero-point vibrational energy     180507.8 (Joules/Mol)
                                   43.14241 (Kcal/Mol)
 WARNING-- EXPLICIT CONSIDERATION OF   2 DEGREES OF FREEDOM AS
           VIBRATIONS MAY CAUSE SIGNIFICANT ERROR
 VIBRATIONAL TEMPERATURES:    696.26   877.37   949.83  1030.59  1144.86
          (KELVIN)           1221.10  1280.18  1302.44  1440.26  1477.49
                             1591.49  1622.74  1769.95  1910.00  1984.22
                             2047.11  2168.04  4571.46  4586.58  4610.30
                             5137.69

 Zero-point correction=                           0.068752 (Hartree/Particle)
 Thermal correction to Energy=                    0.072627
 Thermal correction to Enthalpy=                  0.073571
 Thermal correction to Gibbs Free Energy=         0.042402
 Sum of electronic and zero-point Energies=           -226.072489
 Sum of electronic and thermal Energies=              -226.068615
 Sum of electronic and thermal Enthalpies=            -226.067670
 Sum of electronic and thermal Free Energies=         -226.098840

                     E (Thermal)             CV                S
                      KCAL/MOL        CAL/MOL-KELVIN    CAL/MOL-KELVIN
 TOTAL                   45.574             14.065             65.601
 ELECTRONIC               0.000              0.000              0.000
 TRANSLATIONAL            0.889              2.981             38.570
 ROTATIONAL               0.889              2.981             24.188
 VIBRATIONAL             43.796              8.104              2.843
 VIBRATION  1             0.840              1.286              0.700
 VIBRATION  2             0.969              1.011              0.433
                       Q            LOG10(Q)             LN(Q)
 TOTAL BOT       0.313886D-19        -19.503228        -44.907841
 TOTAL V=0       0.131883D+13         12.120190         27.907769
 VIB (BOT)       0.329999D-31        -31.481487        -72.488804
 VIB (BOT)  1    0.344437D+00         -0.462891         -1.065845
 VIB (BOT)  2    0.242395D+00         -0.615476         -1.417187
 VIB (V=0)       0.138653D+01          0.141930          0.326807
 VIB (V=0)  1    0.110715D+01          0.044208          0.101793
 VIB (V=0)  2    0.105566D+01          0.023523          0.054164
 ELECTRONIC      0.100000D+01          0.000000          0.000000
 TRANSLATIONAL   0.220588D+08          7.343582         16.909224
 ROTATIONAL      0.431198D+05          4.634677         10.671739
 ***** Axes restored to original set *****
 -------------------------------------------------------------------
 Center     Atomic                   Forces (Hartrees/Bohr)
 Number     Number              X              Y              Z
 -------------------------------------------------------------------
    1          1          -0.000038301    0.000000000   -0.000079563
    2          6          -0.000116812    0.000000000    0.000609274
    3          1           0.000021361    0.000000000   -0.000055987
    4          6           0.000208249    0.000000000   -0.000151779
    5          1           0.000097065    0.000000000    0.000008195
    6          6          -0.000145912    0.000000000    0.000168287
    7          7           0.000016573    0.000000000   -0.000154061
    8          1          -0.000012640    0.000000000    0.000064429
    9          7          -0.000029583    0.000000000   -0.000408796
 -------------------------------------------------------------------
 Cartesian Forces:  Max     0.000609274 RMS     0.000163079

 GradGradGradGradGradGradGradGradGradGradGradGradGradGradGradGradGradGrad
 Berny optimization.
 Internal  Forces:  Max     0.000356692 RMS     0.000083312
 Search for a local minimum.
 Step number   1 out of a maximum of  48
 All quantities printed in internal units (Hartrees-Bohrs-Radians)
 Second derivative matrix not updated -- analytic derivatives used.
     Eigenvalues ---    0.00620   0.01051   0.01462   0.02556   0.05439
     Eigenvalues ---    0.05744   0.08937   0.09884   0.10502   0.11274
     Eigenvalues ---    0.20505   0.24782   0.31108   0.34510   0.35745
     Eigenvalues ---    0.35914   0.36846   0.39513   0.44440   0.45628
     Eigenvalues ---    0.517781000.000001000.000001000.000001000.00000
     Eigenvalues --- 1000.000001000.000001000.000001000.000001000.00000
     Eigenvalues --- 1000.000001000.000001000.000001000.000001000.00000
     Eigenvalues --- 1000.000001000.000001000.00000
 Angle between quadratic step and forces=  30.85 degrees.
 Linear search not attempted -- first point.
 Iteration  1 RMS(Cart)=  0.00021650 RMS(Int)=  0.00000007
 Iteration  2 RMS(Cart)=  0.00000008 RMS(Int)=  0.00000001
 Variable       Old X    -DE/DX   Delta X   Delta X   Delta X     New X
                                 (Linear)    (Quad)   (Total)
    R1        2.05410   0.00007   0.00000   0.00022   0.00022   2.05432
    R2        2.63495   0.00025   0.00000   0.00070   0.00070   2.63566
    R3        2.59481  -0.00036   0.00000  -0.00110  -0.00110   2.59371
    R4        2.05335   0.00006   0.00000   0.00014   0.00014   2.05350
    R5        2.69084   0.00001   0.00000   0.00009   0.00009   2.69093
    R6        2.05621   0.00010   0.00000   0.00029   0.00029   2.05650
    R7        2.55054  -0.00013   0.00000  -0.00031  -0.00031   2.55023
    R8        2.58762  -0.00001   0.00000   0.00009   0.00009   2.58771
    R9        1.92019   0.00005   0.00000   0.00011   0.00011   1.92030
    A1        2.30509  -0.00007   0.00000  -0.00086  -0.00086   2.30424
    A2        2.12678   0.00003   0.00000   0.00058   0.00058   2.12735
    A3        1.85132   0.00005   0.00000   0.00028   0.00028   1.85160
    A4        2.21768   0.00005   0.00000   0.00009   0.00009   2.21777
    A5        1.82879  -0.00010   0.00000  -0.00044  -0.00044   1.82835
    A6        2.23671   0.00005   0.00000   0.00036   0.00036   2.23707
    A7        2.24523   0.00002   0.00000  -0.00004  -0.00004   2.24519
    A8        1.95728  -0.00004   0.00000   0.00004   0.00004   1.95732
    A9        2.08068   0.00002   0.00000   0.00000   0.00000   2.08068
   A10        1.81032   0.00008   0.00000   0.00011   0.00011   1.81044
   A11        1.97707   0.00001   0.00000   0.00001   0.00001   1.97708
   A12        2.23377   0.00004   0.00000   0.00044   0.00044   2.23422
   A13        2.07235  -0.00005   0.00000  -0.00046  -0.00046   2.07189
    D1        0.00000   0.00000   0.00000   0.00000   0.00000   0.00000
    D2        3.14159   0.00000   0.00000   0.00000   0.00000   3.14159
    D3        3.14159   0.00000   0.00000   0.00000   0.00000   3.14159
    D4        0.00000   0.00000   0.00000   0.00000   0.00000   0.00000
    D5        3.14159   0.00000   0.00000   0.00000   0.00000   3.14159
    D6        0.00000   0.00000   0.00000   0.00000   0.00000   0.00000
    D7        0.00000   0.00000   0.00000   0.00000   0.00000   0.00000
    D8        3.14159   0.00000   0.00000   0.00000   0.00000   3.14159
    D9        3.14159   0.00000   0.00000   0.00000   0.00000   3.14159
   D10        0.00000   0.00000   0.00000   0.00000   0.00000   0.00000
   D11        0.00000   0.00000   0.00000   0.00000   0.00000   0.00000
   D12        3.14159   0.00000   0.00000   0.00000   0.00000   3.14159
   D13        0.00000   0.00000   0.00000   0.00000   0.00000   0.00000
   D14        3.14159   0.00000   0.00000   0.00000   0.00000   3.14159
   D15        0.00000   0.00000   0.00000   0.00000   0.00000   0.00000
   D16        3.14159   0.00000   0.00000   0.00000   0.00000   3.14159
         Item               Value     Threshold  Converged?
 Maximum Force            0.000357     0.000450     YES
 RMS     Force            0.000083     0.000300     YES
 Maximum Displacement     0.000765     0.001800     YES
 RMS     Displacement     0.000217     0.001200     YES
 Predicted change in Energy=-4.335665D-07
 Optimization completed.
    -- Stationary point found.
                         ----------------------------
                         !   Optimized Parameters   !
                         ! (Angstroms and Degrees)  !
 ------------------------                            -------------------------
 ! Name  Definition              Value          Derivative Info.             !
 -----------------------------------------------------------------------------
 ! R1    R(1,2)                  1.087          -DE/DX =    0.0001           !
 ! R2    R(2,4)                  1.3944         -DE/DX =    0.0003           !
 ! R3    R(2,9)                  1.3731         -DE/DX =   -0.0004           !
 ! R4    R(3,4)                  1.0866         -DE/DX =    0.0001           !
 ! R5    R(4,6)                  1.4239         -DE/DX =    0.               !
 ! R6    R(5,6)                  1.0881         -DE/DX =    0.0001           !
 ! R7    R(6,7)                  1.3497         -DE/DX =   -0.0001           !
 ! R8    R(7,9)                  1.3693         -DE/DX =    0.               !
 ! R9    R(8,9)                  1.0161         -DE/DX =    0.0001           !
 ! A1    A(1,2,4)              132.072          -DE/DX =   -0.0001           !
 ! A2    A(1,2,9)              121.8553         -DE/DX =    0.               !
 ! A3    A(4,2,9)              106.0727         -DE/DX =    0.               !
 ! A4    A(2,4,3)              127.0638         -DE/DX =    0.               !
 ! A5    A(2,4,6)              104.7821         -DE/DX =   -0.0001           !
 ! A6    A(3,4,6)              128.1541         -DE/DX =    0.               !
 ! A7    A(4,6,5)              128.6424         -DE/DX =    0.               !
 ! A8    A(4,6,7)              112.1437         -DE/DX =    0.               !
 ! A9    A(5,6,7)              119.2139         -DE/DX =    0.               !
 ! A10   A(6,7,9)              103.7238         -DE/DX =    0.0001           !
 ! A11   A(2,9,7)              113.2776         -DE/DX =    0.               !
 ! A12   A(2,9,8)              127.9857         -DE/DX =    0.               !
 ! A13   A(7,9,8)              118.7367         -DE/DX =    0.               !
 ! D1    D(1,2,4,3)              0.             -DE/DX =    0.               !
 ! D2    D(1,2,4,6)            180.             -DE/DX =    0.               !
 ! D3    D(9,2,4,3)            180.             -DE/DX =    0.               !
 ! D4    D(9,2,4,6)              0.             -DE/DX =    0.               !
 ! D5    D(1,2,9,7)            180.             -DE/DX =    0.               !
 ! D6    D(1,2,9,8)              0.             -DE/DX =    0.               !
 ! D7    D(4,2,9,7)              0.             -DE/DX =    0.               !
 ! D8    D(4,2,9,8)            180.             -DE/DX =    0.               !
 ! D9    D(2,4,6,5)            180.             -DE/DX =    0.               !
 ! D10   D(2,4,6,7)              0.             -DE/DX =    0.               !
 ! D11   D(3,4,6,5)              0.             -DE/DX =    0.               !
 ! D12   D(3,4,6,7)            180.             -DE/DX =    0.               !
 ! D13   D(4,6,7,9)              0.             -DE/DX =    0.               !
 ! D14   D(5,6,7,9)            180.             -DE/DX =    0.               !
 ! D15   D(6,7,9,2)              0.             -DE/DX =    0.               !
 ! D16   D(6,7,9,8)            180.             -DE/DX =    0.               !
 -----------------------------------------------------------------------------
 GradGradGradGradGradGradGradGradGradGradGradGradGradGradGradGradGradGrad

 1\1\ NATIONAL INSTITUTE OF STANDARDS AND TECHNOLOGY-AMUR\Freq\RBLYP\6-
 31+G(d,p)\C3H4N2\RDJ3\23-May-2000\0\\#N GEOM=ALLCHECK GUESS=TCHECK RBL
 YP/6-31+G(D,P) FREQ\\1H pyrazole C3H4N2 casno=288131\\0,1\H,-1.9091711
 321,0.,-1.1886633079\C,-0.9489706836,0.,-0.679202509\H,0.6807086736,0.
 ,-2.194246159\C,0.3614756269,0.,-1.1556112131\H,2.2589327666,0.,0.0878
 653589\C,1.1733288351,0.,0.0142046182\N,0.4363492062,0.,1.1449182544\H
 ,-1.6118485496,0.,1.3692093922\N,-0.8554384104,0.,0.6907230798\\Versio
 n=SGI-G98RevA.6\State=1-A'\HF=-226.1412412\RMSD=1.725e-09\RMSF=1.631e-
 04\Dipole=-0.798761,0.,-0.4795509\DipoleDeriv=-0.017849,0.0007671,-0.0
 495618,0.0000052,0.1962434,-0.0000767,-0.0398314,0.000379,0.0593103,0.
 1237118,-0.0013446,-0.1795108,-0.0000008,-0.1163505,0.0003441,-0.31633
 27,-0.0006692,0.2271653,0.0892255,0.0002209,0.0291689,-0.0000709,0.181
 3892,-0.0000779,0.0358746,-0.000902,-0.0486761,-0.1980304,-0.0003197,0
 .028344,0.0000654,-0.2154593,0.0002169,-0.0322674,0.0005834,-0.0464525
 ,-0.050412,-0.0006449,-0.0058363,0.0000194,0.1544241,-0.0000164,-0.026
 101,-0.0000624,0.0743015,0.1720234,0.0001805,0.0833742,-0.0001767,-0.0
 979629,-0.0001731,0.192987,0.0011825,0.226988,0.0320824,0.0002559,-0.1
 802541,0.0001976,-0.2256291,0.0001844,-0.1042216,-0.000651,-0.5443894,
 0.190199,-0.0003794,-0.0427545,-0.0000501,0.3100534,-0.0000589,-0.0284
 19,0.0001839,0.2089044,-0.3409496,0.001265,0.3170333,0.0000112,-0.1867
 07,-0.0003434,0.3183144,-0.0000452,-0.1571487\Polar=57.4263913,-0.0021
 719,32.9498619,0.7435922,-0.0346678,56.0102434\PG=CS [SG(C3H4N2)]\NIma
 g=0\\0.28908142,-0.00000036,0.01806816,0.12897835,-0.00000018,0.116808
 98,-0.28355872,0.00000141,-0.11170048,0.79602890,-0.00000075,-0.021559
 62,-0.00000076,-0.00000045,0.10387844,-0.11967063,0.00000191,-0.113524
 95,0.09424248,0.00000244,0.58270642,0.00027709,0.00000062,-0.00075324,
 0.00144093,0.00000005,0.02477065,0.07237743,0.00000105,-0.00235984,0.0
 0000053,-0.00000040,-0.00222598,0.00000089,0.00000019,0.01980347,0.000
 42354,-0.00000156,-0.00013053,-0.00294616,-0.00000053,-0.00018833,-0.0
 8900125,-0.00000022,0.33070963,-0.00681063,-0.00000111,0.00881819,-0.3
 1382506,0.00000103,0.06716281,-0.07836516,-0.00000054,0.08307946,0.571
 22394,0.00000147,0.00024157,0.00000054,-0.00000514,-0.05522608,-0.0000
 0039,0.00000118,-0.02304927,-0.00000453,-0.00000028,0.10351571,-0.0144
 4053,0.00000169,0.01209341,0.09052731,-0.00000123,-0.12953280,0.080481
 93,0.00000091,-0.31754702,-0.11282017,0.00000173,0.77420763,-0.0001830
 9,-0.00000050,0.00026431,-0.00062383,-0.00000025,-0.00098347,-0.000081
 14,-0.00000055,-0.00038212,-0.00498537,-0.00000390,0.00351911,0.354539
 22,-0.00000051,0.00083681,-0.00000029,-0.00000137,0.00425797,-0.000000
 60,0.00000025,-0.00170799,-0.00000099,0.00000126,0.00040090,0.00000007
 ,0.00000073,0.02223190,-0.00100381,0.00000026,0.00105770,-0.00280135,-
 0.00000072,-0.00561319,0.00078061,0.00000009,0.00018091,-0.02083654,-0
 .00000034,0.00625342,0.01959644,-0.00000002,0.05288484,-0.00417041,0.0
 0000294,0.00446743,-0.05255418,-0.00000258,-0.00208739,0.01211068,0.00
 000226,0.01148584,-0.16591646,0.00000262,-0.09635960,-0.33443923,-0.00
 000070,-0.03020889,0.81871671,0.00000196,0.00460624,0.00000116,0.00000
 606,0.00905360,0.00000528,-0.00000061,-0.00294780,0.00000322,-0.000005
 07,-0.05811737,0.00000029,-0.00000237,-0.02719307,0.00000048,0.0000060
 9,0.12451835,0.00074097,-0.00000280,-0.00237879,-0.06190417,0.00000424
 ,0.02974856,-0.01451730,-0.00000184,-0.00921437,-0.06604079,0.00000557
 ,-0.21145762,-0.02318427,0.00000061,-0.05642840,0.00182304,-0.00000603
 ,0.54549370,0.00034185,-0.00000063,0.00043979,-0.05054987,-0.00000092,
 -0.04808614,-0.00204982,-0.00000048,-0.00095542,0.02341502,0.00000093,
 0.03383435,-0.01355305,0.00000020,0.02698297,-0.15948157,-0.00000291,0
 .12286629,0.42933914,-0.00000009,0.00574622,0.00000015,-0.00000672,0.0
 1564101,-0.00000949,-0.00000005,0.00605690,-0.00000121,0.00000427,0.01
 813734,-0.00000048,0.00000105,-0.00703742,-0.00000048,-0.00000655,-0.0
 6518402,0.00000580,0.00000461,0.09411984,0.00210835,0.00000163,-0.0052
 0130,-0.01943826,-0.00000241,-0.05905175,-0.00538973,0.00000089,-0.003
 81619,-0.02853031,-0.00000267,-0.07293506,-0.00089819,-0.00000007,0.00
 540154,0.08682884,0.00000125,-0.26761969,-0.04319192,-0.00000122,0.502
 80579,-0.00020465,0.00000034,0.00039211,0.00920433,0.00000154,-0.00512
 107,0.00067591,0.00000033,-0.00008438,0.00162281,-0.00000105,-0.003172
 64,-0.00039548,-0.00000054,0.00145703,-0.00733841,0.00000301,-0.004965
 97,-0.01921027,-0.00000514,0.02315423,0.27773399,0.00000104,-0.0012462
 3,0.00000060,0.00000077,-0.00791833,0.00000080,0.00000006,0.00209616,0
 .00000012,-0.00000147,0.00292402,0.00000079,-0.00000070,0.00208125,0.0
 0000017,0.00000196,0.00374876,-0.00000182,-0.00000056,-0.01150402,0.00
 000046,0.00000028,0.01085038,-0.00056746,0.,0.00001138,0.02380540,-0.0
 0000161,-0.00434000,0.00124627,-0.00000013,0.00019850,-0.00202629,0.00
 000044,-0.00669211,-0.00051262,0.00000054,0.00094647,-0.00560162,-0.00
 000271,0.00045542,-0.01044529,0.00000415,0.01439474,-0.19482579,-0.000
 00029,0.23701596,0.00522717,-0.00000273,-0.03090645,-0.10556253,0.0000
 0235,-0.01022727,-0.00638591,-0.00000185,-0.00161949,-0.02635910,0.000
 00417,0.01843022,-0.00027804,0.00000066,0.00603354,-0.10692712,-0.0000
 0615,0.04518219,-0.20825142,0.00000865,-0.01464303,-0.26208822,-0.0000
 0136,0.18892742,0.71062516,-0.00000379,-0.00433331,-0.00000173,0.00000
 580,-0.04590099,-0.00000087,-0.00000168,0.00433437,0.00000571,0.000001
 94,0.01117317,-0.00000375,0.00000647,0.00612966,0.00000057,-0.00000601
 ,0.01151531,-0.00000372,-0.00000021,-0.05597587,0.00000213,0.00000124,
 -0.00103199,-0.00000042,-0.00000376,0.07408966,0.00343128,-0.00000095,
 -0.00873585,-0.00978484,0.00000057,-0.30020405,0.00238206,-0.00000111,
 -0.00019259,0.07119358,-0.00000035,-0.05438984,0.00258086,0.00000074,-
 0.00468327,0.02965228,-0.00000294,-0.02859877,-0.08144456,0.00000280,-
 0.11397804,0.18316647,-0.00000081,-0.24199034,-0.20117713,0.00000208,0
 .75277266\\0.00003830,0.,0.00007956,0.00011681,0.,-0.00060927,-0.00002
 136,0.,0.00005599,-0.00020825,0.,0.00015178,-0.00009706,0.,-0.00000820
 ,0.00014591,0.,-0.00016829,-0.00001657,0.,0.00015406,0.00001264,0.,-0.
 00006443,0.00002958,0.,0.00040880\\\@

 YOU SHOULDN'T LET PEOPLE DRIVE YOU CRAZY
 WHEN YOU KNOW IT'S WITHIN WALKING DISTANCE.
 Job cpu time:  0 days  0 hours 34 minutes 55.0 seconds.
 File lengths (MBytes):  RWF=   19 Int=    0 D2E=    0 Chk=    3 Scr=    1
 Normal termination of Gaussian 98.
