 Gaussian 03, Revision C.02,
 Gaussian 03:  IA32L-G03RevC.02 12-Jun-2004

 --------------------------
 #BLYP/6-311G(d,p) opt freq
 --------------------------

 --------------------------------------------------
 1H pyrazole C3H4N2 casno=288131 method=13 basis=21
 --------------------------------------------------
 Symbolic Z-matrix:
 Charge =  0 Multiplicity = 1

 SCF Done:  E(RB-LYP) =  -226.106914146     A.U. after   14 cycles
 SCF Done:  E(RB-LYP) =  -226.168703613     A.U. after   14 cycles
 SCF Done:  E(RB-LYP) =  -226.184276751     A.U. after   14 cycles
 SCF Done:  E(RB-LYP) =  -226.184546209     A.U. after   12 cycles
 SCF Done:  E(RB-LYP) =  -226.184664124     A.U. after   10 cycles
 SCF Done:  E(RB-LYP) =  -226.184673357     A.U. after    8 cycles
 SCF Done:  E(RB-LYP) =  -226.184675305     A.U. after    8 cycles
 Optimization completed.
    -- Stationary point found.
 Normal termination of Gaussian 03 at Fri Jan  7 14:07:35 2005.

 --------------------------------------------------------------------
 #N Geom=AllCheck Guess=Read SCRF=Check GenChk RBLYP/6-311G(d,p) Freq
 --------------------------------------------------------------------

 1H pyrazole C3H4N2 casno=288131 method=13 basis=21
 --------------------------------------------------
 Redundant internal coordinates taken from checkpoint file:
 /scratch/Gau-12273.chk
 Charge =  0 Multiplicity = 1

                         Standard orientation:
 ---------------------------------------------------------------------
 Center     Atomic     Atomic              Coordinates (Angstroms)
 Number     Number      Type              X           Y           Z
 ---------------------------------------------------------------------
    1          1             0        2.120643    0.733471    0.000000
    2          6             0        1.122459    0.309659    0.000000
    3          1             0        1.275242   -1.903630    0.000000
    4          6             0        0.670178   -1.004440    0.000000
    5          1             0       -1.483891   -1.697055    0.000000
    6          6             0       -0.746694   -0.899774    0.000000
    7          7             0       -1.162281    0.378865    0.000000
    8          1             0       -0.051681    2.109014    0.000000
    9          7             0        0.000000    1.096210    0.000000
 ---------------------------------------------------------------------

 SCF Done:  E(RB-LYP) =  -226.184675305     A.U. after    1 cycles

 The electronic state is 1-A'.
 Alpha  occ. eigenvalues --  -14.06924 -14.00803  -9.93900  -9.91668  -9.89846
 Alpha  occ. eigenvalues --   -0.94012  -0.73124  -0.69457  -0.54473  -0.52708
 Alpha  occ. eigenvalues --   -0.48231  -0.39103  -0.37698  -0.37615  -0.34826
 Alpha  occ. eigenvalues --   -0.23830  -0.22154  -0.21262
 Alpha virt. eigenvalues --   -0.01553   0.01624   0.03266   0.05596   0.06870
 Alpha virt. eigenvalues --    0.08673   0.15650   0.17894   0.21620   0.24009
 Alpha virt. eigenvalues --    0.30871   0.34579   0.34904   0.36979   0.37306

 Mulliken atomic charges:
              1
     1  H    0.097624
     2  C    0.119907
     3  H    0.089351
     4  C   -0.274499
     5  H    0.091043
     6  C    0.060938
     7  N   -0.190404
     8  H    0.228551
     9  N   -0.222511
 Sum of Mulliken charges=   0.00000

 Dipole moment (field-independent basis, Debye):
    X=     2.0246    Y=     0.9259    Z=     0.0000  Tot=     2.2263
 Quadrupole moment (field-independent basis, Debye-Ang):
   XX=   -29.9606   YY=   -22.4323   ZZ=   -31.8602
   XY=     2.4258   XZ=     0.0000   YZ=     0.0000

  Exact polarizability:  50.614   1.985  51.587   0.000   0.000  22.329
 Approx polarizability: 103.216   1.329 104.382   0.000   0.000  36.819

                     1                      2                      3
                    A"                     A"                     A"
 Frequencies --   485.2150               617.9558               668.0020
 Red. masses --     1.6831                 2.5800                 2.9794
 Frc consts  --     0.2335                 0.5805                 0.7833
 IR Inten    --    53.2944                 0.1630                21.5725

                     4                      5                      6
                    A"                     A"                     A"
 Frequencies --   718.8428               800.5194               852.3910
 Red. masses --     1.2200                 1.2019                 1.3123
 Frc consts  --     0.3714                 0.4538                 0.5618
 IR Inten    --    80.2940                14.7222                 4.9203

                     7                      8                      9
                    A'                     A'                     A'
 Frequencies --   897.2593               911.2301               998.3839
 Red. masses --     5.4136                 4.2143                 2.0094
 Frc consts  --     2.5679                 2.0617                 1.1801
 IR Inten    --     9.3066                 6.2942                34.5374

                    10                     11                     12
                    A'                     A'                     A'
 Frequencies --  1023.8718              1101.6163              1126.4859
 Red. masses --     1.4539                 1.8800                 2.5229
 Frc consts  --     0.8980                 1.3442                 1.8862
 IR Inten    --     7.8257                17.1289                 0.5775

                    13                     14                     15
                    A'                     A'                     A'
 Frequencies --  1225.8877              1324.4384              1370.9487
 Red. masses --     2.1319                 2.1440                 3.2971
 Frc consts  --     1.8876                 2.2159                 3.6511
 IR Inten    --     1.6639                 5.0608                 9.0419

                    16                     17                     18
                    A'                     A'                     A'
 Frequencies --  1420.2567              1504.8457              3156.4105
 Red. masses --     2.4585                 2.7141                 1.0918
 Frc consts  --     2.9218                 3.6212                 6.4091
 IR Inten    --     5.8996                 4.9301                 4.7325

                    19                     20                     21
                    A'                     A'                     A'
 Frequencies --  3170.0754              3187.6054              3560.7477
 Red. masses --     1.0925                 1.1057                 1.0811
 Frc consts  --     6.4687                 6.6196                 8.0759
 IR Inten    --     3.7138                 2.4674                62.6976

 - Thermochemistry -
 -------------------
 Temperature   298.150 Kelvin.  Pressure   1.00000 Atm.
 Atom  1 has atomic number  1 and mass   1.00783

 Molecular mass:    68.03745 amu.
 Principal axes and moments of inertia in atomic units:
                           1         2         3
     EIGENVALUES --   190.06428 195.03862 385.10290
           X            0.94176   0.33629   0.00000
           Y           -0.33629   0.94176   0.00000
           Z            0.00000   0.00000   1.00000
 This molecule is an asymmetric top.
 Rotational symmetry number  1.
 Rotational temperatures (Kelvin)      0.45571     0.44409     0.22491
 Rotational constants (GHZ):           9.49543     9.25325     4.68639
 Zero-point vibrational energy     180175.5 (Joules/Mol)
                                   43.06297 (Kcal/Mol)
 Warning -- explicit consideration of   2 degrees of freedom as
           vibrations may cause significant error
 Vibrational temperatures:    698.12   889.10   961.10  1034.25  1151.77
          (Kelvin)           1226.40  1290.95  1311.06  1436.45  1473.12
                             1584.98  1620.76  1763.78  1905.57  1972.49
                             2043.43  2165.13  4541.37  4561.03  4586.25
                             5123.12

 Zero-point correction=                           0.068625 (Hartree/Particle)
 Thermal correction to Energy=                    0.072487
 Thermal correction to Enthalpy=                  0.073431
 Thermal correction to Gibbs Free Energy=         0.042288
 Sum of electronic and zero-point Energies=           -226.116050
 Sum of electronic and thermal Energies=              -226.112188
 Sum of electronic and thermal Enthalpies=            -226.111244
 Sum of electronic and thermal Free Energies=         -226.142387

                     E (Thermal)             CV                S
                      KCal/Mol        Cal/Mol-Kelvin    Cal/Mol-Kelvin
 Total                   45.486             14.013             65.546
 Electronic               0.000              0.000              0.000
 Translational            0.889              2.981             38.570
 Rotational               0.889              2.981             24.172
 Vibrational             43.709              8.051              2.804
 Vibration  1             0.841              1.283              0.696
 Vibration  2             0.978              0.994              0.420

 Optimization completed.
    -- Stationary point found.
 Normal termination of Gaussian 03 at Fri Jan  7 14:15:16 2005.
