 Gaussian 98, Revision A.7,
 Gaussian 98:  SGI64-G98RevA.7 11-Apr-1999

 --------------------
 #BLYP/3-21G opt freq
 --------------------

 -------------------------------
 1H pyrazole C3H4N2 casno=288131
 -------------------------------
 Symbolic Z-matrix:
 Charge =  0 Multiplicity = 1

 SCF Done:  E(RB-LYP) =  -224.766337690     A.U. after   16 cycles
 SCF Done:  E(RB-LYP) =  -224.838100956     A.U. after   15 cycles
 SCF Done:  E(RB-LYP) =  -224.861671642     A.U. after   15 cycles
 SCF Done:  E(RB-LYP) =  -224.862452970     A.U. after   13 cycles
 SCF Done:  E(RB-LYP) =  -224.862876629     A.U. after   14 cycles
 SCF Done:  E(RB-LYP) =  -224.862928987     A.U. after    9 cycles
 SCF Done:  E(RB-LYP) =  -224.862943540     A.U. after    9 cycles
 SCF Done:  E(RB-LYP) =  -224.862945497     A.U. after    9 cycles
 Optimization completed.
    -- Stationary point found.
 Normal termination of Gaussian 98.

 ----------------------------------------------
 #N Geom=AllCheck Guess=TCheck RBLYP/3-21G Freq
 ----------------------------------------------

 1H pyrazole C3H4N2 casno=288131
 -------------------------------
 Redundant internal coordinates taken from checkpointfile:
 /tmp/Gau-14807908.chk
 Charge =  0 Multiplicity = 1

                         Standard orientation:
 ---------------------------------------------------------------------
 Center     Atomic     Atomic              Coordinates (Angstroms)
 Number     Number      Type              X           Y           Z
 ---------------------------------------------------------------------
    1          1             0        2.134880    0.734702    0.000000
    2          6             0        1.131479    0.324900    0.000000
    3          1             0        1.303039   -1.889961    0.000000
    4          6             0        0.688264   -0.998703    0.000000
    5          1             0       -1.445748   -1.745244    0.000000
    6          6             0       -0.737026   -0.924598    0.000000
    7          7             0       -1.203027    0.359378    0.000000
    8          1             0       -0.067283    2.136013    0.000000
    9          7             0        0.000000    1.119893    0.000000
 ---------------------------------------------------------------------

 SCF Done:  E(RB-LYP) =  -224.862945497     A.U. after    1 cycles

  The electronic state is 1-A'.
 Alpha  occ. eigenvalues --  -14.01203 -13.95307  -9.89869  -9.87431  -9.85411
 Alpha  occ. eigenvalues --   -0.92575  -0.73113  -0.68699  -0.54192  -0.51804
 Alpha  occ. eigenvalues --   -0.47954  -0.38743  -0.37090  -0.35933  -0.34763
 Alpha  occ. eigenvalues --   -0.21726  -0.21312  -0.19924
 Alpha virt. eigenvalues --   -0.00510   0.05060   0.06799   0.11125   0.14311
 Alpha virt. eigenvalues --    0.15723   0.18074   0.21343   0.28587   0.38415
 Alpha virt. eigenvalues --    0.41632   0.63502   0.67818   0.68223   0.69672

  Exact polarizability:  44.656   2.244  46.633  -0.004  -0.001  12.357
 Approx polarizability:  97.514   0.588  97.849   0.000   0.000  17.274

                     1                      2                      3
                    A"                     A"                     A"
 Frequencies --   518.7165               627.9137               653.1134
 Red. masses --     1.8194                 2.0842                 2.9215
 Frc consts  --     0.2884                 0.4842                 0.7342
 IR Inten    --    80.5380                 1.5629                28.1934
 Raman Activ --     0.0000                 0.0000                 0.0000

                     4                      5                      6
                    A"                     A"                     ?A
 Frequencies --   741.6199               829.9820               885.1567
 Red. masses --     1.2375                 1.2195                 5.4593
 Frc consts  --     0.4010                 0.4949                 2.5202
 IR Inten    --    78.7669                17.3919                22.3168
 Raman Activ --     0.0000                 0.0000                 0.0000

                     7                      8                      9
                    ?A                     A'                     A'
 Frequencies --   886.6946               917.9653               935.3335
 Red. masses --     1.3579                 4.9472                 3.6699
 Frc consts  --     0.6290                 2.4562                 1.8917
 IR Inten    --     1.2782                 4.1773                 3.4736
 Raman Activ --     0.0000                 0.0000                 0.0000

                    10                     11                     12
                    A'                     A'                     A'
 Frequencies --  1033.5306              1088.1543              1109.8754
 Red. masses --     1.6936                 2.1779                 1.6358
 Frc consts  --     1.0659                 1.5194                 1.1872
 IR Inten    --     7.6948                14.5831                 7.1505
 Raman Activ --     0.0000                 0.0000                 0.0000

                    13                     14                     15
                    A'                     A'                     A'
 Frequencies --  1181.5263              1305.4113              1345.9428
 Red. masses --     3.6000                 1.7230                 1.8789
 Frc consts  --     2.9610                 1.7300                 2.0054
 IR Inten    --     1.6214                 2.7372                 7.6392
 Raman Activ --     0.0000                 0.0000                 0.0000

                    16                     17                     18
                    A'                     A'                     A'
 Frequencies --  1387.5159              1479.4442              3196.1598
 Red. masses --     2.2875                 2.4606                 1.0913
 Frc consts  --     2.5947                 3.1732                 6.5682
 IR Inten    --     8.6178                11.7203                 3.4382
 Raman Activ --     0.0000                 0.0000                 0.0000

                    19                     20                     21
                    A'                     A'                     A'
 Frequencies --  3200.4916              3225.6961              3506.7526
 Red. masses --     1.0932                 1.1047                 1.0824
 Frc consts  --     6.5978                 6.7721                 7.8422
 IR Inten    --     2.9321                 1.1118                62.3893
 Raman Activ --     0.0000                 0.0000                 0.0000

 - Thermochemistry -
 -------------------
 Temperature   298.150 Kelvin.  Pressure   1.00000 Atm.
 Atom  1 has atomic number  1 and mass   1.00783

 Molecular mass:    68.03745 amu.
 Principal axes and moments of inertia in atomic units:
                           1         2         3
     EIGENVALUES --   195.13556 200.76044 395.89599
           X            0.99216   0.12500   0.00000
           Y           -0.12500   0.99216   0.00000
           Z            0.00000   0.00000   1.00000
 THIS MOLECULE IS AN ASYMMETRIC TOP.
 ROTATIONAL SYMMETRY NUMBER  1.
 ROTATIONAL TEMPERATURES (KELVIN)      0.44386     0.43143     0.21878
 ROTATIONAL CONSTANTS (GHZ)            9.24865     8.98953     4.55862
 Zero-point vibrational energy     179780.8 (Joules/Mol)
                                   42.96864 (Kcal/Mol)
 WARNING-- EXPLICIT CONSIDERATION OF   1 DEGREES OF FREEDOM AS
           VIBRATIONS MAY CAUSE SIGNIFICANT ERROR
 VIBRATIONAL TEMPERATURES:    746.31   903.42   939.68  1067.02  1194.15
          (KELVIN)           1273.54  1275.75  1320.74  1345.73  1487.01
                             1565.60  1596.85  1699.94  1878.18  1936.50
                             1996.31  2128.58  4598.53  4604.77  4641.03
                             5045.41

 Zero-point correction=                           0.068475 (Hartree/Particle)
 Thermal correction to Energy=                    0.072309
 Thermal correction to Enthalpy=                  0.073253
 Thermal correction to Gibbs Free Energy=         0.042117
 Sum of electronic and zero-point Energies=           -224.794471
 Sum of electronic and thermal Energies=              -224.790637
 Sum of electronic and thermal Enthalpies=            -224.789692
 Sum of electronic and thermal Free Energies=         -224.820829

                     E (Thermal)             CV                S
                      KCAL/MOL        CAL/MOL-KELVIN    CAL/MOL-KELVIN
 TOTAL                   45.375             13.973             65.532
 ELECTRONIC               0.000              0.000              0.000
 TRANSLATIONAL            0.889              2.981             38.570
 ROTATIONAL               0.889              2.981             24.254
 VIBRATIONAL             43.597              8.011              2.708
 VIBRATION  1             0.874              1.209              0.613
                       Q            LOG10(Q)             LN(Q)
 TOTAL BOT       0.424415D-19        -19.372209        -44.606160
 TOTAL V=0       0.132996D+13         12.123838         27.916168
 VIB (BOT)       0.431580D-31        -31.364939        -72.220441
 VIB (BOT)  1    0.311548D+00         -0.506476         -1.166203
 VIB (V=0)       0.135241D+01          0.131108          0.301888
 VIB (V=0)  1    0.108912D+01          0.037076          0.085370
 ELECTRONIC      0.100000D+01          0.000000          0.000000
 TRANSLATIONAL   0.220588D+08          7.343582         16.909224
 ROTATIONAL      0.445807D+05          4.649147         10.705057
 ***** Axes restored to original set *****
 -------------------------------------------------------------------
 Center     Atomic                   Forces (Hartrees/Bohr)
 Number     Number              X              Y              Z
 -------------------------------------------------------------------
    1          1           0.000033376    0.000000000   -0.000042047
    2          6          -0.000262163    0.000000000    0.000307381
    3          1          -0.000055518    0.000000000    0.000023901
    4          6           0.000171053    0.000000000   -0.000155067
    5          1          -0.000010867    0.000000000   -0.000025485
    6          6           0.000145211    0.000000000    0.000067355
    7          7          -0.000152877    0.000000000    0.000023487
    8          1          -0.000062678    0.000000000   -0.000007216
    9          7           0.000194463    0.000000000   -0.000192310
 -------------------------------------------------------------------
 Cartesian Forces:  Max     0.000307381 RMS     0.000114203

 GradGradGradGradGradGradGradGradGradGradGradGradGradGradGradGradGradGrad
 Berny optimization.
 Internal  Forces:  Max     0.000195022 RMS     0.000056048
 Search for a local minimum.
 Step number   1 out of a maximum of  48
 All quantities printed in internal units (Hartrees-Bohrs-Radians)
 Second derivative matrix not updated -- analytic derivatives used.
     Eigenvalues ---    0.00710   0.01189   0.01582   0.02669   0.05668
     Eigenvalues ---    0.06034   0.09299   0.10300   0.10391   0.11255
     Eigenvalues ---    0.18341   0.23212   0.28304   0.31988   0.35871
     Eigenvalues ---    0.36213   0.36523   0.38805   0.43265   0.44016
     Eigenvalues ---    0.504001000.000001000.000001000.000001000.00000
     Eigenvalues --- 1000.000001000.000001000.000001000.000001000.00000
     Eigenvalues --- 1000.000001000.000001000.000001000.000001000.00000
     Eigenvalues --- 1000.000001000.000001000.00000
 Angle between quadratic step and forces=  30.45 degrees.
 Linear search not attempted -- first point.
 Iteration  1 RMS(Cart)=  0.00025102 RMS(Int)=  0.00000008
 Iteration  2 RMS(Cart)=  0.00000008 RMS(Int)=  0.00000001
 Variable       Old X    -DE/DX   Delta X   Delta X   Delta X     New X
                                 (Linear)    (Quad)   (Total)
    R1        2.04820  -0.00001   0.00000  -0.00003  -0.00003   2.04817
    R2        2.63775   0.00017   0.00000   0.00054   0.00054   2.63829
    R3        2.61320  -0.00020   0.00000  -0.00066  -0.00066   2.61253
    R4        2.04605  -0.00004   0.00000  -0.00011  -0.00011   2.04594
    R5        2.69705   0.00008   0.00000   0.00017   0.00017   2.69722
    R6        2.04906  -0.00001   0.00000  -0.00005  -0.00005   2.04901
    R7        2.58122   0.00007   0.00000   0.00029   0.00029   2.58151
    R8        2.68956  -0.00006   0.00000  -0.00037  -0.00037   2.68919
    R9        1.92439   0.00004   0.00000   0.00011   0.00011   1.92451
    A1        2.28165  -0.00005   0.00000  -0.00063  -0.00063   2.28103
    A2        2.14138   0.00006   0.00000   0.00067   0.00067   2.14205
    A3        1.86016  -0.00001   0.00000  -0.00004  -0.00004   1.86011
    A4        2.21464  -0.00004   0.00000  -0.00047  -0.00047   2.21417
    A5        1.84197  -0.00003   0.00000  -0.00012  -0.00012   1.84185
    A6        2.22658   0.00006   0.00000   0.00059   0.00059   2.22716
    A7        2.23120   0.00001   0.00000  -0.00007  -0.00007   2.23112
    A8        1.97089  -0.00007   0.00000  -0.00021  -0.00021   1.97068
    A9        2.08110   0.00007   0.00000   0.00028   0.00028   2.08138
   A10        1.78638   0.00003   0.00000   0.00004   0.00004   1.78642
   A11        1.96538   0.00008   0.00000   0.00033   0.00033   1.96571
   A12        2.24939  -0.00008   0.00000  -0.00053  -0.00053   2.24886
   A13        2.06841   0.00000   0.00000   0.00020   0.00020   2.06861
    D1        0.00000   0.00000   0.00000   0.00000   0.00000   0.00000
    D2        3.14159   0.00000   0.00000   0.00000   0.00000   3.14159
    D3        3.14159   0.00000   0.00000   0.00000   0.00000   3.14159
    D4        0.00000   0.00000   0.00000   0.00000   0.00000   0.00000
    D5        3.14159   0.00000   0.00000   0.00000   0.00000   3.14159
    D6        0.00000   0.00000   0.00000   0.00000   0.00000   0.00000
    D7        0.00000   0.00000   0.00000   0.00000   0.00000   0.00000
    D8        3.14159   0.00000   0.00000   0.00000   0.00000   3.14159
    D9        3.14159   0.00000   0.00000   0.00000   0.00000   3.14159
   D10        0.00000   0.00000   0.00000   0.00000   0.00000   0.00000
   D11        0.00000   0.00000   0.00000   0.00000   0.00000   0.00000
   D12        3.14159   0.00000   0.00000   0.00000   0.00000   3.14159
   D13        0.00000   0.00000   0.00000   0.00000   0.00000   0.00000
   D14        3.14159   0.00000   0.00000   0.00000   0.00000   3.14159
   D15        0.00000   0.00000   0.00000   0.00000   0.00000   0.00000
   D16        3.14159   0.00000   0.00000   0.00000   0.00000   3.14159
         Item               Value     Threshold  Converged?
 Maximum Force            0.000195     0.000450     YES
 RMS     Force            0.000056     0.000300     YES
 Maximum Displacement     0.000969     0.001800     YES
 RMS     Displacement     0.000251     0.001200     YES
 Predicted change in Energy=-2.573557D-07
 Optimization completed.
    -- Stationary point found.
                         ----------------------------
                         !   Optimized Parameters   !
                         ! (Angstroms and Degrees)  !
 ------------------------                            -------------------------
 ! Name  Definition              Value          Derivative Info.             !
 -----------------------------------------------------------------------------
 ! R1    R(1,2)                  1.0839         -DE/DX =    0.               !
 ! R2    R(2,4)                  1.3958         -DE/DX =    0.0002           !
 ! R3    R(2,9)                  1.3828         -DE/DX =   -0.0002           !
 ! R4    R(3,4)                  1.0827         -DE/DX =    0.               !
 ! R5    R(4,6)                  1.4272         -DE/DX =    0.0001           !
 ! R6    R(5,6)                  1.0843         -DE/DX =    0.               !
 ! R7    R(6,7)                  1.3659         -DE/DX =    0.0001           !
 ! R8    R(7,9)                  1.4233         -DE/DX =   -0.0001           !
 ! R9    R(8,9)                  1.0183         -DE/DX =    0.               !
 ! A1    A(1,2,4)              130.7291         -DE/DX =    0.               !
 ! A2    A(1,2,9)              122.6919         -DE/DX =    0.0001           !
 ! A3    A(4,2,9)              106.5791         -DE/DX =    0.               !
 ! A4    A(2,4,3)              126.8894         -DE/DX =    0.               !
 ! A5    A(2,4,6)              105.5371         -DE/DX =    0.               !
 ! A6    A(3,4,6)              127.5735         -DE/DX =    0.0001           !
 ! A7    A(4,6,5)              127.8381         -DE/DX =    0.               !
 ! A8    A(4,6,7)              112.9239         -DE/DX =   -0.0001           !
 ! A9    A(5,6,7)              119.238          -DE/DX =    0.0001           !
 ! A10   A(6,7,9)              102.3522         -DE/DX =    0.               !
 ! A11   A(2,9,7)              112.6078         -DE/DX =    0.0001           !
 ! A12   A(2,9,8)              128.8807         -DE/DX =   -0.0001           !
 ! A13   A(7,9,8)              118.5114         -DE/DX =    0.               !
 ! D1    D(1,2,4,3)              0.             -DE/DX =    0.               !
 ! D2    D(1,2,4,6)            180.             -DE/DX =    0.               !
 ! D3    D(9,2,4,3)            180.             -DE/DX =    0.               !
 ! D4    D(9,2,4,6)              0.             -DE/DX =    0.               !
 ! D5    D(1,2,9,7)            180.             -DE/DX =    0.               !
 ! D6    D(1,2,9,8)              0.             -DE/DX =    0.               !
 ! D7    D(4,2,9,7)              0.             -DE/DX =    0.               !
 ! D8    D(4,2,9,8)            180.             -DE/DX =    0.               !
 ! D9    D(2,4,6,5)            180.             -DE/DX =    0.               !
 ! D10   D(2,4,6,7)              0.             -DE/DX =    0.               !
 ! D11   D(3,4,6,5)              0.             -DE/DX =    0.               !
 ! D12   D(3,4,6,7)            180.             -DE/DX =    0.               !
 ! D13   D(4,6,7,9)              0.             -DE/DX =    0.               !
 ! D14   D(5,6,7,9)            180.             -DE/DX =    0.               !
 ! D15   D(6,7,9,2)              0.             -DE/DX =    0.               !
 ! D16   D(6,7,9,8)            180.             -DE/DX =    0.               !
 -----------------------------------------------------------------------------
 GradGradGradGradGradGradGradGradGradGradGradGradGradGradGradGradGradGrad

 1\1\ NATIONAL INSTITUTE OF STANDARDS AND TECHNOLOGY-TAY\Freq\RBLYP\3-2
 1G\C3H4N2\RDJ3\07-Mar-2000\0\\#N GEOM=ALLCHECK GUESS=TCHECK RBLYP/3-21
 G FREQ\\1H pyrazole C3H4N2 casno=288131\\0,1\H,-1.8986290312,0.,-1.221
 7633329\C,-0.955621209,0.,-0.6874535186\H,0.6775793131,0.,-2.193341922
 9\C,0.358231921,0.,-1.158785832\H,2.2656220913,0.,0.0549671835\C,1.182
 3911442,0.,0.0064206552\N,0.4625267944,0.,1.1672593031\H,-1.6358330919
 ,0.,1.3751833306\N,-0.8794911399,0.,0.6932931132\\Version=SGI64-G98Rev
 A.7\State=1-A'\HF=-224.8629455\RMSD=1.805e-09\RMSF=1.142e-04\Dipole=-0
 .7968303,0.,-0.3954096\DipoleDeriv=-0.0067739,0.0000955,-0.0485291,0.0
 000232,0.1879126,0.000009,-0.0524559,0.0000435,0.0604606,0.0996131,-0.
 0003953,-0.0938542,-0.0001518,-0.0745418,-0.0001067,-0.2793986,0.00041
 49,0.193876,0.0908883,0.0001625,0.029259,0.000013,0.1586343,-0.0000153
 ,0.0369917,-0.0004924,-0.0404497,-0.2468062,0.0000715,0.0068492,0.0000
 867,-0.2063979,0.0001361,-0.0485521,0.0004094,-0.0094984,-0.0491533,-0
 .0005354,-0.0164436,0.,0.1509437,-0.0000515,-0.0089681,-0.000001,0.085
 1987,0.1869733,0.0008469,0.1300735,-0.0001813,-0.0961138,-0.00023,0.15
 99671,-0.0002319,0.0541306,0.0760526,-0.0001119,-0.1454756,0.0001309,-
 0.1785136,0.0001794,-0.0338688,0.0001989,-0.3913547,0.1983236,0.000263
 4,-0.0161491,0.0000231,0.3496583,0.0000128,-0.0328059,-0.0002679,0.209
 3861,-0.3491166,-0.0003972,0.1542699,0.0000561,-0.2915816,0.0000661,0.
 2590903,-0.0000735,-0.1617484\Polar=48.0574758,0.0033086,12.3569711,-0
 .4371025,0.0025203,43.2322043\PG=CS [SG(C3H4N2)]\NImag=0\\0.28455318,-
 0.00000078,0.01920137,0.13386238,-0.00000046,0.12470540,-0.27951933,0.
 00000097,-0.11940056,0.78701257,0.00000398,-0.02416960,0.00000236,-0.0
 0000972,0.11449062,-0.12660301,-0.00000053,-0.11964616,0.10683721,0.00
 000719,0.55743037,0.00022285,-0.00000042,-0.00090655,0.00058994,0.0000
 0389,0.02752901,0.07739066,0.00000024,-0.00273287,0.00000021,0.0000012
 1,-0.00120404,-0.00000160,-0.00000036,0.02207645,0.00055903,0.00000108
 ,-0.00005615,-0.00492244,-0.00001004,-0.00082980,-0.08977130,0.0000010
 3,0.33527733,-0.00723951,0.00000040,0.01065861,-0.29616422,0.00000173,
 0.06141097,-0.08210724,-0.00000084,0.08431116,0.55633831,-0.00000313,0
 .00126322,-0.00000192,0.00000737,-0.06367939,-0.00000494,-0.00000324,-
 0.02684443,0.00000897,-0.00000052,0.11799157,-0.01595239,-0.00000194,0
 .01195527,0.08267937,0.00001929,-0.12677524,0.08103120,-0.00000149,-0.
 32206962,-0.11929264,-0.00001224,0.77015357,-0.00045989,0.00000129,0.0
 0014824,-0.00003612,-0.00001442,-0.00038039,-0.00017203,0.00000111,-0.
 00059326,-0.00528456,0.00001171,0.00480038,0.35928113,0.00000052,0.000
 69343,0.00000037,-0.00000107,0.00417142,0.00000058,0.00000057,-0.00191
 302,-0.00000164,0.00000023,0.00089640,0.00000198,-0.00000239,0.0232089
 9,-0.00094778,-0.00000004,0.00093706,-0.00280163,0.00000046,-0.0060278
 7,0.00091793,0.,0.00027955,-0.02279087,-0.00000023,0.00612735,0.013320
 08,0.00000007,0.05337618,-0.00350290,-0.00000274,0.00485244,-0.0677725
 8,0.00002876,-0.00755134,0.01189424,-0.00000268,0.01347363,-0.15678313
 ,-0.00002015,-0.08152778,-0.34130734,0.00000332,-0.02285824,0.81149966
 ,0.00000513,0.00481997,0.00000341,-0.00001146,0.01322847,0.00000560,0.
 00000475,-0.00215473,-0.00001126,0.00000317,-0.06551075,0.00002898,-0.
 00001985,-0.02891790,0.00000088,0.00003999,0.13133434,0.00046699,0.000
 00153,-0.00280104,-0.06417930,-0.00001851,0.02686354,-0.01726542,0.000
 00095,-0.01038730,-0.05466129,0.00001118,-0.19406916,-0.01606421,-0.00
 000243,-0.05446658,0.01180339,-0.00003191,0.49163546,0.00101045,0.0000
 0083,0.00082068,-0.04953567,-0.00000831,-0.04920738,-0.00214249,0.0000
 0123,-0.00073813,0.01647067,0.00000330,0.03039758,-0.01280491,0.000000
 13,0.02762574,-0.13639602,-0.00001139,0.10603342,0.34414705,-0.0000034
 7,0.00545871,-0.00000244,0.00000796,0.01444173,-0.00000281,-0.00000332
 ,0.00602573,0.00000727,-0.00000321,0.01980285,-0.00002363,0.00001541,-
 0.00669725,-0.00000071,-0.00003114,-0.06493617,0.00002712,0.00000928,0
 .08945652,0.00299476,-0.00000011,-0.00402922,-0.01749043,0.00000091,-0
 .06092164,-0.00509164,0.00000098,-0.00251806,-0.02767213,-0.00000492,-
 0.07790263,-0.00288463,0.00000212,0.00313661,0.05581960,0.00000205,-0.
 22290237,-0.04204671,-0.00000044,0.44346578,-0.00026336,-0.00000029,0.
 00054042,0.00833859,0.00000365,-0.00744119,0.00053820,-0.00000086,-0.0
 0001053,0.00165169,-0.00000337,-0.00331789,-0.00022249,0.00000046,0.00
 142947,-0.00658550,0.00000241,-0.00516903,-0.01478477,-0.00000093,0.02
 359436,0.26576439,-0.00000047,-0.00133827,-0.00000020,0.00000280,-0.00
 704476,-0.00000271,-0.00000116,0.00205995,0.00000360,-0.00000037,0.003
 02386,-0.00000247,0.00000379,0.00198823,0.00000008,-0.00000569,0.00370
 080,0.00000071,0.00000054,-0.01033415,-0.00000144,-0.00000211,0.011711
 66,-0.00065500,0.00000039,-0.00022086,0.02535624,-0.00000470,-0.004074
 19,0.00125489,0.00000084,0.00012860,-0.00250310,0.00000400,-0.00592345
 ,-0.00047502,-0.00000065,0.00106751,-0.00653868,-0.00000437,-0.0000565
 3,-0.01139423,0.00000252,0.01267736,-0.18748845,0.00000200,0.23115580,
 0.00519852,0.00000074,-0.03057564,-0.10291318,-0.00000956,-0.00459388,
 -0.00621414,0.00000094,-0.00230817,-0.02688201,0.00000803,0.02118218,0
 .00100621,-0.00000179,0.00610530,-0.11104643,-0.00001277,0.03903545,-0
 .14596431,0.00000942,0.01277683,-0.25443673,0.00000268,0.18244333,0.64
 125204,-0.00000203,-0.00319595,-0.00000133,0.00000193,-0.05023446,-0.0
 0000077,-0.00000072,0.00468697,0.00000100,-0.00000058,0.01305666,-0.00
 000847,0.00000336,0.00656970,-0.00000050,-0.00000965,0.00843598,0.0000
 1132,0.00000435,-0.05321798,0.00000087,0.00000104,-0.00376731,-0.00000
 005,0.00000232,0.07766639,0.00627502,0.00000009,-0.01084431,-0.0060784
 4,0.00000303,-0.26601902,0.00230188,-0.00000090,0.00017548,0.07053930,
 0.00000010,-0.06149613,0.00212880,-0.00000040,-0.00442981,0.03252696,0
 .00000661,-0.03381603,-0.06149098,-0.00000688,-0.09100583,0.17786283,0
 .00000043,-0.23475422,-0.22406537,-0.00000206,0.70218988\\-0.00003338,
 0.,0.00004205,0.00026216,0.,-0.00030738,0.00005552,0.,-0.00002390,-0.0
 0017105,0.,0.00015507,0.00001087,0.,0.00002548,-0.00014521,0.,-0.00006
 736,0.00015288,0.,-0.00002349,0.00006268,0.,0.00000722,-0.00019446,0.,
 0.00019231\\\@

 Luck is a matter of preparation meeting opportunity.
                                    -- Oprah Winfrey
 Job cpu time:  0 days  0 hours  1 minutes 23.4 seconds.
 File lengths (MBytes):  RWF=   10 Int=    0 D2E=    0 Chk=    4 Scr=    1
 Normal termination of Gaussian 98.
