 Gaussian 98, Revision A.7,
 Gaussian 98:  SGI64-G98RevA.7 11-Apr-1999

 ---------------------
 #CISD/6-31G* OPT FREQ
 ---------------------

 -------------------------------
 1H pyrazole C3H4N2 casno=288131
 -------------------------------
 Symbolic Z-matrix:
 Charge =  0 Multiplicity = 1

 SCF Done:  E(RHF) =  -224.793493484     A.U. after   15 cycles
 SCF Done:  E(RHF) =  -224.792853891     A.U. after   12 cycles
 SCF Done:  E(RHF) =  -224.792838721     A.U. after   11 cycles
 SCF Done:  E(RHF) =  -224.792828591     A.U. after   10 cycles
 Optimization completed.
    -- Stationary point found.
 Normal termination of Gaussian 98.

 -----------------------------------------------------
 #N Geom=AllCheck Guess=TCheck RCISD(FC)/6-31G(d) Freq
 -----------------------------------------------------

 1H pyrazole C3H4N2 casno=288131
 -------------------------------
 Redundant internal coordinates taken from checkpointfile:
 /wrk/Gau-273150.chk
 Charge =  0 Multiplicity = 1

                         Standard orientation:
 ---------------------------------------------------------------------
 Center     Atomic     Atomic              Coordinates (Angstroms)
 Number     Number      Type              X           Y           Z
 ---------------------------------------------------------------------
    1          1             0        2.091676    0.727197    0.000000
    2          6             0        1.103209    0.304510    0.000000
    3          1             0        1.259119   -1.886211    0.000000
    4          6             0        0.662416   -0.992799    0.000000
    5          1             0       -1.474343   -1.672363    0.000000
    6          6             0       -0.742271   -0.883548    0.000000
    7          7             0       -1.138092    0.375085    0.000000
    8          1             0       -0.049932    2.080236    0.000000
    9          7             0        0.000000    1.079509    0.000000
 ---------------------------------------------------------------------

 SCF Done:  E(RHF) =  -224.792828591     A.U. after    1 cycles
 SCF Done:  E(RHF) =  -224.792820648     A.U. after    7 cycles
 SCF Done:  E(RHF) =  -224.792835267     A.U. after    7 cycles
 SCF Done:  E(RHF) =  -224.792825151     A.U. after    7 cycles
 SCF Done:  E(RHF) =  -224.792831620     A.U. after    7 cycles
 SCF Done:  E(RHF) =  -224.792828538     A.U. after    7 cycles
 SCF Done:  E(RHF) =  -224.792829934     A.U. after    8 cycles
 SCF Done:  E(RHF) =  -224.792826949     A.U. after    8 cycles
 SCF Done:  E(RHF) =  -224.792810303     A.U. after    7 cycles
 SCF Done:  E(RHF) =  -224.792845032     A.U. after    7 cycles
 SCF Done:  E(RHF) =  -224.792828558     A.U. after    7 cycles
 SCF Done:  E(RHF) =  -224.792825233     A.U. after    9 cycles
 SCF Done:  E(RHF) =  -224.792829380     A.U. after    9 cycles
 SCF Done:  E(RHF) =  -224.792827799     A.U. after    9 cycles
 SCF Done:  E(RHF) =  -224.792825424     A.U. after    9 cycles
 SCF Done:  E(RHF) =  -224.792828401     A.U. after    7 cycles

  The electronic state is 1-A'.
 Alpha  occ. eigenvalues --  -15.63978 -15.58293 -11.27356 -11.24605 -11.21687
 Alpha  occ. eigenvalues --   -1.37712  -1.09604  -1.04938  -0.82146  -0.79854
 Alpha  occ. eigenvalues --   -0.74065  -0.60806  -0.60444  -0.58896  -0.55928
 Alpha  occ. eigenvalues --   -0.45200  -0.35928  -0.34119
 Alpha virt. eigenvalues --    0.18089   0.22630   0.24783   0.28252   0.30481
 Alpha virt. eigenvalues --    0.31673   0.40865   0.41498   0.45837   0.58120
 Alpha virt. eigenvalues --    0.66100   0.74037   0.77290   0.78536   0.82620

                     1                      2                      3
                    A"                     A"                     A"
 Frequencies --   542.0612               659.9645               723.0483
 Red. masses --     1.7831                 2.6335                 2.7428
 Frc consts  --     0.3087                 0.6758                 0.8448
 IR Inten    --    74.3119                 0.0260                26.7095
 Raman Activ --     0.0000                 0.0000                 0.0000

                     4                      5                      6
                    A"                     A"                     A"
 Frequencies --   802.8223               891.0424               932.9930
 Red. masses --     1.1939                 1.2331                 1.2895
 Frc consts  --     0.4534                 0.5768                 0.6614
 IR Inten    --    93.1380                 2.8806                 8.1835
 Raman Activ --     0.0000                 0.0000                 0.0000

                     7                      8                      9
                    A'                     A'                     A'
 Frequencies --   962.2001               982.4532              1115.3127
 Red. masses --     5.7403                 4.1474                 1.4686
 Frc consts  --     3.1312                 2.3586                 1.0763
 IR Inten    --    10.3233                 5.3863                13.9252
 Raman Activ --     0.0000                 0.0000                 0.0000

                    10                     11                     12
                    A'                     A'                     A'
 Frequencies --  1119.6864              1210.9090              1256.4114
 Red. masses --     1.5639                 1.8982                 2.6494
 Frc consts  --     1.1552                 1.6399                 2.4641
 IR Inten    --    31.6707                21.8136                 2.4607
 Raman Activ --     0.0000                 0.0000                 0.0000

                    13                     14                     15
                    A'                     A'                     A'
 Frequencies --  1362.7378              1484.0817              1518.1646
 Red. masses --     1.6117                 2.7356                 3.8966
 Frc consts  --     1.7634                 3.5499                 5.2914
 IR Inten    --     3.1610                 3.9959                23.2745
 Raman Activ --     0.0000                 0.0000                 0.0000

                    16                     17                     18
                    A'                     A'                     A'
 Frequencies --  1588.9765              1678.1061              3371.5189
 Red. masses --     2.7372                 3.2455                 1.0934
 Frc consts  --     4.0719                 5.3849                 7.3228
 IR Inten    --     9.8807                 8.2460                 4.8322
 Raman Activ --     0.0000                 0.0000                 0.0000

                    19                     20                     21
                    A'                     A'                     A'
 Frequencies --  3384.0497              3403.0753              3812.0609
 Red. masses --     1.0955                 1.1085                 1.0825
 Frc consts  --     7.3915                 7.5639                 9.2687
 IR Inten    --     3.0479                 0.4372                97.3493
 Raman Activ --     0.0000                 0.0000                 0.0000

 - Thermochemistry -
 -------------------
 Temperature   298.150 Kelvin.  Pressure   1.00000 Atm.
 Atom  1 has atomic number  1 and mass   1.00783

 Molecular mass:    68.03745 amu.
 Principal axes and moments of inertia in atomic units:
                           1         2         3
     EIGENVALUES --   184.67234 189.06978 373.74212
           X            0.92686   0.37541   0.00000
           Y           -0.37541   0.92686   0.00000
           Z            0.00000   0.00000   1.00000
 THIS MOLECULE IS AN ASYMMETRIC TOP.
 ROTATIONAL SYMMETRY NUMBER  1.
 ROTATIONAL TEMPERATURES (KELVIN)      0.46901     0.45810     0.23175
 ROTATIONAL CONSTANTS (GHZ)            9.77267     9.54537     4.82884
 Zero-point vibrational energy     196197.6 (Joules/Mol)
                                   46.89236 (Kcal/Mol)
 WARNING-- EXPLICIT CONSIDERATION OF   1 DEGREES OF FREEDOM AS
           VIBRATIONS MAY CAUSE SIGNIFICANT ERROR
 VIBRATIONAL TEMPERATURES:    779.90   949.54  1040.30  1155.08  1282.00
          (KELVIN)           1342.36  1384.38  1413.52  1604.68  1610.97
                             1742.22  1807.69  1960.66  2135.25  2184.29
                             2286.17  2414.41  4850.84  4868.86  4896.24
                             5484.67

 Zero-point correction=                           0.074728 (Hartree/Particle)
 Thermal correction to Energy=                    0.078352
 Thermal correction to Enthalpy=                  0.079296
 Thermal correction to Gibbs Free Energy=         0.048518
 Sum of electronic and zero-point Energies=           -225.333806
 Sum of electronic and thermal Energies=              -225.330182
 Sum of electronic and thermal Enthalpies=            -225.329237
 Sum of electronic and thermal Free Energies=         -225.360016

                     E (Thermal)             CV                S
                      KCAL/MOL        CAL/MOL-KELVIN    CAL/MOL-KELVIN
 TOTAL                   49.167             12.508             64.779
 ELECTRONIC               0.000              0.000              0.000
 TRANSLATIONAL            0.889              2.981             38.570
 ROTATIONAL               0.889              2.981             24.082
 VIBRATIONAL             47.389              6.546              2.126
 VIBRATION  1             0.897              1.157              0.561
                       Q            LOG10(Q)             LN(Q)
 TOTAL BOT       0.482597D-22        -22.316415        -51.385445
 TOTAL V=0       0.113689D+13         12.055720         27.759320
 VIB (BOT)       0.535002D-34        -34.271645        -78.913379
 VIB (BOT)  1    0.291714D+00         -0.535042         -1.231980
 VIB (V=0)       0.126035D+01          0.100490          0.231386
 VIB (V=0)  1    0.107888D+01          0.032971          0.075920
 ELECTRONIC      0.100000D+01          0.000000          0.000000
 TRANSLATIONAL   0.220588D+08          7.343582         16.909224
 ROTATIONAL      0.408928D+05          4.611647         10.618711
 ***** Axes restored to original set *****
 -------------------------------------------------------------------
 Center     Atomic                   Forces (Hartrees/Bohr)
 Number     Number              X              Y              Z
 -------------------------------------------------------------------
    1          1          -0.000021204    0.000000000   -0.000068728
    2          6          -0.000119648    0.000000000    0.000037306
    3          1          -0.000042560    0.000000000   -0.000020210
    4          6          -0.000059876    0.000000000   -0.000135027
    5          1           0.000000735    0.000000000    0.000044488
    6          6          -0.000158566    0.000000000    0.000163637
    7          7          -0.000006306    0.000000000    0.000162890
    8          1           0.000003291    0.000000000    0.000015080
    9          7           0.000404134    0.000000000   -0.000199434
 -------------------------------------------------------------------
 Cartesian Forces:  Max     0.000404134 RMS     0.000110341

 GradGradGradGradGradGradGradGradGradGradGradGradGradGradGradGradGradGrad
 Berny optimization.
 Internal  Forces:  Max     0.000238631 RMS     0.000079886
 Search for a local minimum.
 Step number   1 out of a maximum of  48
 All quantities printed in internal units (Hartrees-Bohrs-Radians)
 Second derivative matrix not updated -- analytic derivatives used.
     Eigenvalues ---    0.00771   0.01227   0.01814   0.03073   0.06208
     Eigenvalues ---    0.06578   0.10402   0.11511   0.12217   0.13057
     Eigenvalues ---    0.24508   0.28884   0.38544   0.39930   0.40339
     Eigenvalues ---    0.40623   0.45320   0.46766   0.51662   0.55466
     Eigenvalues ---    0.635151000.000001000.000001000.000001000.00000
     Eigenvalues --- 1000.000001000.000001000.000001000.000001000.00000
     Eigenvalues --- 1000.000001000.000001000.000001000.000001000.00000
     Eigenvalues --- 1000.000001000.000001000.00000
 Angle between quadratic step and forces=  26.01 degrees.
 Linear search not attempted -- first point.
 Iteration  1 RMS(Cart)=  0.00026052 RMS(Int)=  0.00000003
 Iteration  2 RMS(Cart)=  0.00000003 RMS(Int)=  0.00000001
 Variable       Old X    -DE/DX   Delta X   Delta X   Delta X     New X
                                 (Linear)    (Quad)   (Total)
    R1        2.03155   0.00005   0.00000   0.00011   0.00011   2.03166
    R2        2.58921  -0.00009   0.00000   0.00001   0.00001   2.58922
    R3        2.54776  -0.00001   0.00000  -0.00009  -0.00009   2.54768
    R4        2.03024   0.00001   0.00000   0.00001   0.00001   2.03025
    R5        2.66249   0.00019   0.00000   0.00037   0.00037   2.66286
    R6        2.03368   0.00000   0.00000   0.00003   0.00003   2.03371
    R7        2.49332  -0.00010   0.00000  -0.00010  -0.00010   2.49322
    R8        2.52932  -0.00013   0.00000  -0.00027  -0.00027   2.52904
    R9        1.89345   0.00001   0.00000   0.00004   0.00004   1.89349
    A1        2.30242   0.00000   0.00000  -0.00023  -0.00023   2.30219
    A2        2.12511   0.00010   0.00000   0.00048   0.00048   2.12559
    A3        1.85566  -0.00010   0.00000  -0.00025  -0.00025   1.85541
    A4        2.22520  -0.00002   0.00000  -0.00025  -0.00025   2.22495
    A5        1.82071  -0.00006   0.00000  -0.00015  -0.00015   1.82057
    A6        2.23727   0.00008   0.00000   0.00040   0.00040   2.23766
    A7        2.24128  -0.00001   0.00000   0.00013   0.00013   2.24141
    A8        1.95311   0.00011   0.00000   0.00022   0.00022   1.95333
    A9        2.08879  -0.00010   0.00000  -0.00035  -0.00035   2.08844
   A10        1.82034  -0.00018   0.00000  -0.00040  -0.00040   1.81995
   A11        1.97496   0.00024   0.00000   0.00057   0.00057   1.97553
   A12        2.23305  -0.00011   0.00000  -0.00031  -0.00031   2.23274
   A13        2.07518  -0.00013   0.00000  -0.00027  -0.00027   2.07491
    D1        0.00000   0.00000   0.00000   0.00000   0.00000   0.00000
    D2        3.14159   0.00000   0.00000   0.00000   0.00000   3.14159
    D3        3.14159   0.00000   0.00000   0.00000   0.00000   3.14159
    D4        0.00000   0.00000   0.00000   0.00000   0.00000   0.00000
    D5        3.14159   0.00000   0.00000   0.00000   0.00000   3.14159
    D6        0.00000   0.00000   0.00000   0.00000   0.00000   0.00000
    D7        0.00000   0.00000   0.00000   0.00000   0.00000   0.00000
    D8        3.14159   0.00000   0.00000   0.00000   0.00000   3.14159
    D9        3.14159   0.00000   0.00000   0.00000   0.00000   3.14159
   D10        0.00000   0.00000   0.00000   0.00000   0.00000   0.00000
   D11        0.00000   0.00000   0.00000   0.00000   0.00000   0.00000
   D12        3.14159   0.00000   0.00000   0.00000   0.00000   3.14159
   D13        0.00000   0.00000   0.00000   0.00000   0.00000   0.00000
   D14        3.14159   0.00000   0.00000   0.00000   0.00000   3.14159
   D15        0.00000   0.00000   0.00000   0.00000   0.00000   0.00000
   D16        3.14159   0.00000   0.00000   0.00000   0.00000   3.14159
         Item               Value     Threshold  Converged?
 Maximum Force            0.000239     0.000450     YES
 RMS     Force            0.000080     0.000300     YES
 Maximum Displacement     0.000754     0.001800     YES
 RMS     Displacement     0.000261     0.001200     YES
 Predicted change in Energy=-2.856252D-07
 Optimization completed.
    -- Stationary point found.
                         ----------------------------
                         !   Optimized Parameters   !
                         ! (Angstroms and Degrees)  !
 ------------------------                            -------------------------
 ! Name  Definition              Value          Derivative Info.             !
 -----------------------------------------------------------------------------
 ! R1    R(1,2)                  1.075          -DE/DX =    0.0001           !
 ! R2    R(2,4)                  1.3701         -DE/DX =   -0.0001           !
 ! R3    R(2,9)                  1.3482         -DE/DX =    0.               !
 ! R4    R(3,4)                  1.0744         -DE/DX =    0.               !
 ! R5    R(4,6)                  1.4089         -DE/DX =    0.0002           !
 ! R6    R(5,6)                  1.0762         -DE/DX =    0.               !
 ! R7    R(6,7)                  1.3194         -DE/DX =   -0.0001           !
 ! R8    R(7,9)                  1.3385         -DE/DX =   -0.0001           !
 ! R9    R(8,9)                  1.002          -DE/DX =    0.               !
 ! A1    A(1,2,4)              131.919          -DE/DX =    0.               !
 ! A2    A(1,2,9)              121.7597         -DE/DX =    0.0001           !
 ! A3    A(4,2,9)              106.3213         -DE/DX =   -0.0001           !
 ! A4    A(2,4,3)              127.4948         -DE/DX =    0.               !
 ! A5    A(2,4,6)              104.3192         -DE/DX =   -0.0001           !
 ! A6    A(3,4,6)              128.1859         -DE/DX =    0.0001           !
 ! A7    A(4,6,5)              128.4161         -DE/DX =    0.               !
 ! A8    A(4,6,7)              111.9048         -DE/DX =    0.0001           !
 ! A9    A(5,6,7)              119.6791         -DE/DX =   -0.0001           !
 ! A10   A(6,7,9)              104.298          -DE/DX =   -0.0002           !
 ! A11   A(2,9,7)              113.1566         -DE/DX =    0.0002           !
 ! A12   A(2,9,8)              127.9443         -DE/DX =   -0.0001           !
 ! A13   A(7,9,8)              118.8991         -DE/DX =   -0.0001           !
 ! D1    D(1,2,4,3)              0.             -DE/DX =    0.               !
 ! D2    D(1,2,4,6)            180.             -DE/DX =    0.               !
 ! D3    D(9,2,4,3)            180.             -DE/DX =    0.               !
 ! D4    D(9,2,4,6)              0.             -DE/DX =    0.               !
 ! D5    D(1,2,9,7)            180.             -DE/DX =    0.               !
 ! D6    D(1,2,9,8)              0.             -DE/DX =    0.               !
 ! D7    D(4,2,9,7)              0.             -DE/DX =    0.               !
 ! D8    D(4,2,9,8)            180.             -DE/DX =    0.               !
 ! D9    D(2,4,6,5)            180.             -DE/DX =    0.               !
 ! D10   D(2,4,6,7)              0.             -DE/DX =    0.               !
 ! D11   D(3,4,6,5)              0.             -DE/DX =    0.               !
 ! D12   D(3,4,6,7)            180.             -DE/DX =    0.               !
 ! D13   D(4,6,7,9)              0.             -DE/DX =    0.               !
 ! D14   D(5,6,7,9)            180.             -DE/DX =    0.               !
 ! D15   D(6,7,9,2)              0.             -DE/DX =    0.               !
 ! D16   D(6,7,9,8)            180.             -DE/DX =    0.               !
 -----------------------------------------------------------------------------
 GradGradGradGradGradGradGradGradGradGradGradGradGradGradGradGradGradGrad

 1\1\ NATIONAL INSTITUTE OF STANDARDS AND TECHNOLOGY-TAY\Freq\RCISD-FC\
 6-31G(d)\C3H4N2\RDJ3\06-Aug-1999\0\\#N GEOM=ALLCHECK GUESS=TCHECK RCIS
 D(FC)/6-31G(D) FREQ\\1H pyrazole C3H4N2 casno=288131\\0,1\H,-1.8822179
 282,0.,-1.1666971185\C,-0.9313457192,0.,-0.6651261164\H,0.6720898462,0
 .,-2.165979429\C,0.3539507211,0.,-1.1398080579\H,2.2275631654,0.,0.091
 9060681\C,1.1537855311,0.,0.02008189\N,0.4254433697,0.,1.1202410601\H,
 -1.5843631081,0.,1.3489503381\N,-0.8385026801,0.,0.6798923466\\Version
 =SGI64-G98RevA.7\State=1-A'\HF=-224.7928286\MP2=-225.5021906\MP3=-225.
 5153405\CISD=-225.4085336\RMSD=8.746e-10\RMSF=1.103e-04\Dipole=-0.8154
 666,0.,-0.4708113\DipoleDeriv=-0.0057268,0.,-0.0454922,0.,0.1802033,0.
 ,-0.034193,0.,0.0787271,0.2109127,0.,-0.1113374,0.,-0.0491718,0.,-0.32
 72713,0.,0.2608516,0.0929931,0.,0.0293531,0.,0.1754442,0.,0.034338,0.,
 -0.0269199,-0.3512017,0.,-0.0119483,0.,-0.249844,0.,-0.0766149,0.,-0.0
 076406,-0.054775,0.,-0.0122483,0.,0.1401742,0.,-0.0274515,0.,0.0784537
 ,0.2750265,0.,0.1287243,0.,-0.0359376,0.,0.2578243,0.,0.1796186,0.0286
 455,0.,-0.2271163,0.,-0.2497721,0.,-0.0963853,0.,-0.5829999,0.2287142,
 0.,-0.0527305,0.,0.3453629,0.,-0.0426348,0.,0.2388794,-0.4253698,0.,0.
 3025038,0.,-0.2565264,0.,0.3124363,0.,-0.2189985\PG=CS [SG(C3H4N2)]\NI
 mag=0\\0.32668462,0.,0.02339034,0.14347476,0.,0.13336393,-0.32193013,0
 .,-0.12265042,0.94506769,0.,-0.02926915,0.,0.,0.12902224,-0.13326709,0
 .,-0.13175940,0.10074397,0.,0.72275100,0.00029920,0.,-0.00083814,0.002
 60823,0.,0.02847728,0.08399470,0.,-0.00275984,0.,0.,-0.00311248,0.,0.,
 0.02341923,0.00057109,0.,-0.00014992,-0.00324488,0.,0.00041009,-0.0998
 0145,0.,0.37245706,-0.00759058,0.,0.00987713,-0.38876817,0.,0.08081928
 ,-0.09258609,0.,0.09249806,0.68948677,0.,0.00090474,0.,0.,-0.06477997,
 0.,0.,-0.02678690,0.,0.,0.11956790,-0.01645705,0.,0.01452048,0.1160047
 7,0.,-0.16307225,0.09020941,0.,-0.35933680,-0.13451272,0.,0.90418923,-
 0.00027658,0.,0.00030522,-0.00097184,0.,-0.00154746,-0.00013906,0.,-0.
 00052051,-0.00485918,0.,0.00403026,0.39854403,0.,0.00077329,0.,0.,0.00
 523026,0.,0.,-0.00157311,0.,0.,0.00025806,0.,0.,0.02732248,-0.00118094
 ,0.,0.00120272,-0.00334726,0.,-0.00661818,0.00091886,0.,0.00013219,-0.
 02381654,0.,0.00804132,0.02226211,0.,0.06226833,-0.00514264,0.,0.00494
 471,-0.05746344,0.,0.00069795,0.01502875,0.,0.01305784,-0.19889344,0.,
 -0.11458883,-0.37771362,0.,-0.03490420,0.96583704,0.,0.00610246,0.,0.,
 0.00894817,0.,0.,-0.00439011,0.,0.,-0.06675154,0.,0.,-0.03420872,0.,0.
 ,0.15100717,0.00149934,0.,-0.00207676,-0.07951770,0.,0.04770413,-0.016
 76424,0.,-0.00936269,-0.07180527,0.,-0.25465771,-0.02531314,0.,-0.0686
 7847,-0.02498127,0.,0.68328976,0.00086069,0.,0.00088755,-0.06654041,0.
 ,-0.04582423,-0.00237347,0.,-0.00157603,0.03727881,0.,0.04505663,-0.01
 372093,0.,0.03157409,-0.21027479,0.,0.16240820,0.57359540,0.,0.0072033
 9,0.,0.,0.01793544,0.,0.,0.00703647,0.,0.,0.02192361,0.,0.,-0.00830074
 ,0.,0.,-0.07823532,0.,0.,0.11350779,0.00207042,0.,-0.00630401,-0.01794
 567,0.,-0.07580416,-0.00666097,0.,-0.00465806,-0.03920398,0.,-0.083191
 64,-0.00197362,0.,0.00780710,0.13202758,0.,-0.35497930,-0.05695028,0.,
 0.63886996,-0.00022692,0.,0.00045601,0.01149404,0.,-0.00413204,0.00079
 827,0.,-0.00001852,0.00277043,0.,-0.00331385,-0.00053534,0.,0.00155819
 ,-0.00824618,0.,-0.00659468,-0.02141341,0.,0.02742007,0.31779161,0.,-0
 .00156836,0.,0.,-0.00926828,0.,0.,0.00254557,0.,0.,0.00357716,0.,0.,0.
 00237168,0.,0.,0.00477920,0.,0.,-0.01373999,0.,0.,0.01345524,-0.000805
 38,0.,0.00001859,0.02739676,0.,-0.00603380,0.00135839,0.,0.00013568,-0
 .00287368,0.,-0.00776910,-0.00051386,0.,0.00108118,-0.00641334,0.,0.00
 118526,-0.01195845,0.,0.01832352,-0.22037323,0.,0.27149250,0.00730710,
 0.,-0.03646301,-0.12350668,0.,-0.02597888,-0.00763342,0.,-0.00096493,-
 0.03680838,0.,0.01357342,-0.00033827,0.,0.00693317,-0.12314292,0.,0.06
 108663,-0.29739204,0.,-0.03879764,-0.30244104,0.,0.21418407,0.88396502
 ,0.,-0.00477276,0.,0.,-0.05470487,0.,0.,0.00562513,0.,0.,0.01208988,0.
 ,0.,0.00812705,0.,0.,0.01275715,0.,0.,-0.06734990,0.,0.,-0.00215914,0.
 ,0.,0.09039260,0.00410248,0.,-0.00881127,-0.01741034,0.,-0.38761424,0.
 00310304,0.,0.00036940,0.08897206,0.,-0.05870903,0.00327286,0.,-0.0052
 3198,0.03017367,0.,-0.04242132,-0.12363115,0.,-0.14008155,0.20499934,0
 .,-0.27843023,-0.19356978,0.,0.92095875\\0.00002120,0.,0.00006873,0.00
 011965,0.,-0.00003731,0.00004256,0.,0.00002021,0.00005988,0.,0.0001350
 3,-0.00000073,0.,-0.00004449,0.00015857,0.,-0.00016364,0.00000631,0.,-
 0.00016289,-0.00000329,0.,-0.00001508,-0.00040413,0.,0.00019943\\\@

 THERE IS AN OLD, OLD RECIPE IN MAINE FOR STEWING COOT. PLACE THE
 BIRD IN A KETTLE OF WATER WITH A RED BUILDING BRICK FREE OF MORTAR AND
 BLEMISHES. PARBOIL THE COOT AND BRICK TOGETHER FOR THREE HOURS.
 POUR OFF THE WATER, REFILL THE KETTLE, AND AGAIN PARBOIL FOR THREE HOURS.
 ONCE AGAIN POUR OFF THE WATER, FOR THE LAST TIME ADD FRESH WATER,
 AND LET THE COOT AND BRICK SIMMER TOGETHER OVERNIGHT. IN THE MORNING,
 THROW AWAY THE COOT AND EAT THE BRICK.
 Job cpu time:  0 days  9 hours 53 minutes 43.0 seconds.
 File lengths (MBytes):  RWF=  404 Int=    0 D2E=    0 Chk=    6 Scr=    1
 Normal termination of Gaussian 98.
