 Gaussian 98, Revision A.4,
 Gaussian 98:  IBM-RS6000-G98RevA.4 11-Sep-1998

 ----------------------
 #B3PW91/6-31G opt freq
 ----------------------

 -------------------------------
 1H pyrazole C3H4N2 casno=288131
 -------------------------------
 Symbolic Z-matrix:
 Charge =  0 Multiplicity = 1

 SCF Done:  E(RB+HF-PW91) =  -225.966660944     A.U. after   14 cycles
 SCF Done:  E(RB+HF-PW91) =  -226.028555570     A.U. after   14 cycles
 SCF Done:  E(RB+HF-PW91) =  -226.042358236     A.U. after   14 cycles
 SCF Done:  E(RB+HF-PW91) =  -226.042655569     A.U. after   10 cycles
 SCF Done:  E(RB+HF-PW91) =  -226.042761686     A.U. after   10 cycles
 SCF Done:  E(RB+HF-PW91) =  -226.042770216     A.U. after    9 cycles
 SCF Done:  E(RB+HF-PW91) =  -226.042772126     A.U. after    7 cycles
 Optimization completed.
    -- Stationary point found.
 Normal termination of Gaussian 98.

 ------------------------------------------------
 #N Geom=AllCheck Guess=TCheck RB3PW91/6-31G Freq
 ------------------------------------------------

 1H pyrazole C3H4N2 casno=288131
 -------------------------------
 Redundant internal coordinates taken from checkpointfile:
 /wrk/rdj3/Gau-14738.chk
 Charge =  0 Multiplicity = 1

                         Standard orientation:
 ---------------------------------------------------------------------
 Center     Atomic     Atomic              Coordinates (Angstroms)
 Number     Number      Type              X           Y           Z
 ---------------------------------------------------------------------
    1          1             0        2.113577    0.728398    0.000000
    2          6             0        1.118536    0.314260    0.000000
    3          1             0        1.273007   -1.889498    0.000000
    4          6             0        0.670526   -0.996104    0.000000
    5          1             0       -1.469189   -1.703711    0.000000
    6          6             0       -0.743585   -0.906755    0.000000
    7          7             0       -1.161929    0.372198    0.000000
    8          1             0       -0.056751    2.101233    0.000000
    9          7             0        0.000000    1.098541    0.000000
 ---------------------------------------------------------------------

 SCF Done:  E(RB+HF-PW91) =  -226.042772126     A.U. after    1 cycles

  The electronic state is 1-A'.
 Alpha  occ. eigenvalues --  -14.39676 -14.34407 -10.21461 -10.18996 -10.17047
 Alpha  occ. eigenvalues --   -1.05881  -0.83116  -0.78808  -0.62122  -0.60126
 Alpha  occ. eigenvalues --   -0.55103  -0.45314  -0.43884  -0.43233  -0.40727
 Alpha  occ. eigenvalues --   -0.28168  -0.26534  -0.25160
 Alpha virt. eigenvalues --    0.01302   0.06997   0.08807   0.13661   0.16177
 Alpha virt. eigenvalues --    0.17434   0.20930   0.22967   0.28924   0.40020
 Alpha virt. eigenvalues --    0.42055   0.55391   0.56281   0.60044   0.61103

  Exact polarizability:  45.642   1.896  46.972  -0.001  -0.003  15.371
 Approx polarizability:  76.046   0.725  77.346   0.000   0.000  19.318

                     1                      2                      3
                    A"                     A"                     A"
 Frequencies --   635.8377               663.8879               699.6620
 Red. masses --     3.3563                 2.2924                 1.5113
 Frc consts  --     0.7995                 0.5953                 0.4359
 IR Inten    --    37.5908                20.5907                87.1040
 Raman Activ --     0.0000                 0.0000                 0.0000

                     4                      5                      6
                    A"                     A"                     A"
 Frequencies --   783.7835               879.4716               934.2570
 Red. masses --     1.2193                 1.2535                 1.3904
 Frc consts  --     0.4413                 0.5712                 0.7150
 IR Inten    --    89.5056                14.6382                 0.9686
 Raman Activ --     0.0000                 0.0000                 0.0000

                     7                      8                      9
                    A'                     A'                     A'
 Frequencies --   941.3115               957.3704              1035.6047
 Red. masses --     5.6380                 4.5712                 2.1638
 Frc consts  --     2.9433                 2.4685                 1.3672
 IR Inten    --    10.4268                 6.6575                31.8342
 Raman Activ --     0.0000                 0.0000                 0.0000

                    10                     11                     12
                    A'                     A'                     A'
 Frequencies --  1086.0288              1163.4597              1179.9254
 Red. masses --     1.4544                 2.1321                 2.0235
 Frc consts  --     1.0107                 1.7004                 1.6599
 IR Inten    --     6.9950                18.1932                 0.4089
 Raman Activ --     0.0000                 0.0000                 0.0000

                    13                     14                     15
                    A'                     A'                     A'
 Frequencies --  1293.1494              1395.9382              1443.2960
 Red. masses --     2.1719                 2.1115                 3.0683
 Frc consts  --     2.1399                 2.4242                 3.7659
 IR Inten    --     2.1448                 4.3418                 9.2390
 Raman Activ --     0.0000                 0.0000                 0.0000

                    16                     17                     18
                    A'                     A'                     A'
 Frequencies --  1490.3218              1579.3118              3307.6493
 Red. masses --     2.4357                 2.6455                 1.0910
 Frc consts  --     3.1873                 3.8877                 7.0323
 IR Inten    --    10.8952                12.9676                 1.8993
 Raman Activ --     0.0000                 0.0000                 0.0000

                    19                     20                     21
                    A'                     A'                     A'
 Frequencies --  3318.3091              3336.1428              3739.3073
 Red. masses --     1.0972                 1.1092                 1.0823
 Frc consts  --     7.1185                 7.2738                 8.9160
 IR Inten    --     3.5805                 0.4609                78.9679
 Raman Activ --     0.0000                 0.0000                 0.0000

 - Thermochemistry -
 -------------------
 Temperature   298.150 Kelvin.  Pressure   1.00000 Atm.
 Atom  1 has atomic number  1 and mass   1.00783

 Molecular mass:    68.03745 amu.
 Principal axes and moments of inertia in atomic units:
                           1         2         3
     EIGENVALUES --   190.15930 193.76271 383.92200
           X            0.97679   0.21418   0.00000
           Y           -0.21418   0.97679   0.00000
           Z            0.00000   0.00000   1.00000
 THIS MOLECULE IS AN ASYMMETRIC TOP.
 ROTATIONAL SYMMETRY NUMBER  1.
 ROTATIONAL TEMPERATURES (KELVIN)      0.45548     0.44701     0.22560
 ROTATIONAL CONSTANTS (GHZ)            9.49068     9.31418     4.70080
 Zero-point vibrational energy     190589.2 (Joules/Mol)
                                   45.55192 (Kcal/Mol)
 VIBRATIONAL TEMPERATURES:    914.82   955.18  1006.65  1127.68  1265.36
          (KELVIN)           1344.18  1354.33  1377.43  1490.00  1562.54
                             1673.95  1697.64  1860.54  2008.43  2076.57
                             2144.23  2272.26  4758.94  4774.28  4799.94
                             5380.00

 Zero-point correction=                           0.072592 (Hartree/Particle)
 Thermal correction to Energy=                    0.076215
 Thermal correction to Enthalpy=                  0.077159
 Thermal correction to Gibbs Free Energy=         0.046357
 Sum of electronic and zero-point Energies=           -225.970181
 Sum of electronic and thermal Energies=              -225.966557
 Sum of electronic and thermal Enthalpies=            -225.965613
 Sum of electronic and thermal Free Energies=         -225.996416

                     E (Thermal)             CV                S
                      KCAL/MOL        CAL/MOL-KELVIN    CAL/MOL-KELVIN
 TOTAL                   47.825             12.747             64.829
 ELECTRONIC               0.000              0.000              0.000
 TRANSLATIONAL            0.889              2.981             38.570
 ROTATIONAL               0.889              2.981             24.163
 VIBRATIONAL             46.048              6.785              2.096
                       Q            LOG10(Q)             LN(Q)
 TOTAL BOT       0.475986D-21        -21.322405        -49.096653
 TOTAL V=0       0.116731D+13         12.067187         27.785724
 VIB (BOT)       0.506812D-33        -33.295153        -76.664922
 VIB (V=0)       0.124291D+01          0.094440          0.217455
 ELECTRONIC      0.100000D+01          0.000000          0.000000
 TRANSLATIONAL   0.220588D+08          7.343582         16.909224
 ROTATIONAL      0.425760D+05          4.629165         10.659046
 ***** Axes restored to original set *****
 -------------------------------------------------------------------
 Center     Atomic                   Forces (Hartrees/Bohr)
 Number     Number              X              Y              Z
 -------------------------------------------------------------------
    1          1           0.000028587    0.000000000   -0.000053596
    2          6          -0.000026190    0.000000000    0.000455031
    3          1          -0.000007143    0.000000000   -0.000029592
    4          6           0.000222245    0.000000000   -0.000184422
    5          1           0.000013519    0.000000000   -0.000006452
    6          6          -0.000180631    0.000000000   -0.000008274
    7          7          -0.000096800    0.000000000    0.000042977
    8          1          -0.000001131    0.000000000    0.000030118
    9          7           0.000047544    0.000000000   -0.000245791
 -------------------------------------------------------------------
 Cartesian Forces:  Max     0.000455031 RMS     0.000122244

 GradGradGradGradGradGradGradGradGradGradGradGradGradGradGradGradGradGrad
 Berny optimization.
 Internal  Forces:  Max     0.000220833 RMS     0.000062640
 Search for a local minimum.
 Step number   1 out of a maximum of  48
 All quantities printed in internal units (Hartrees-Bohrs-Radians)
 Second derivative matrix not updated -- analytic derivatives used.
     Eigenvalues ---    0.01036   0.01325   0.01795   0.02909   0.06126
     Eigenvalues ---    0.06458   0.09840   0.10776   0.11338   0.12308
     Eigenvalues ---    0.22395   0.26945   0.33585   0.37645   0.38655
     Eigenvalues ---    0.38799   0.39583   0.43837   0.49449   0.50428
     Eigenvalues ---    0.566431000.000001000.000001000.000001000.00000
     Eigenvalues --- 1000.000001000.000001000.000001000.000001000.00000
     Eigenvalues --- 1000.000001000.000001000.000001000.000001000.00000
     Eigenvalues --- 1000.000001000.000001000.00000
 Angle between quadratic step and forces=  28.62 degrees.
 Linear search not attempted -- first point.
 Iteration  1 RMS(Cart)=  0.00021131 RMS(Int)=  0.00000005
 Iteration  2 RMS(Cart)=  0.00000006 RMS(Int)=  0.00000001
 Variable       Old X    -DE/DX   Delta X   Delta X   Delta X     New X
                                 (Linear)    (Quad)   (Total)
    R1        2.03672   0.00000   0.00000   0.00002   0.00002   2.03674
    R2        2.61696   0.00012   0.00000   0.00041   0.00041   2.61737
    R3        2.58155  -0.00022   0.00000  -0.00072  -0.00072   2.58082
    R4        2.03629   0.00003   0.00000   0.00004   0.00004   2.03633
    R5        2.67761  -0.00007   0.00000  -0.00014  -0.00014   2.67748
    R6        2.03673   0.00001   0.00000   0.00005   0.00005   2.03679
    R7        2.54288   0.00003   0.00000   0.00008   0.00008   2.54296
    R8        2.58944  -0.00011   0.00000  -0.00012  -0.00012   2.58933
    R9        1.89785   0.00002   0.00000   0.00004   0.00004   1.89789
    A1        2.29463  -0.00011   0.00000  -0.00082  -0.00082   2.29381
    A2        2.13569   0.00000   0.00000   0.00045   0.00045   2.13614
    A3        1.85287   0.00010   0.00000   0.00037   0.00037   1.85323
    A4        2.21884   0.00006   0.00000  -0.00002  -0.00002   2.21881
    A5        1.83713  -0.00016   0.00000  -0.00054  -0.00054   1.83660
    A6        2.22721   0.00010   0.00000   0.00056   0.00056   2.22777
    A7        2.24627  -0.00005   0.00000  -0.00022  -0.00022   2.24605
    A8        1.95002   0.00006   0.00000   0.00028   0.00028   1.95031
    A9        2.08689  -0.00002   0.00000  -0.00007  -0.00007   2.08683
   A10        1.81335  -0.00002   0.00000  -0.00015  -0.00015   1.81320
   A11        1.97140   0.00001   0.00000   0.00004   0.00004   1.97144
   A12        2.23884   0.00002   0.00000   0.00018   0.00018   2.23902
   A13        2.07294  -0.00003   0.00000  -0.00022  -0.00022   2.07272
    D1        0.00000   0.00000   0.00000   0.00000   0.00000   0.00000
    D2        3.14159   0.00000   0.00000   0.00000   0.00000   3.14159
    D3        3.14159   0.00000   0.00000   0.00000   0.00000   3.14159
    D4        0.00000   0.00000   0.00000   0.00000   0.00000   0.00000
    D5        3.14159   0.00000   0.00000   0.00000   0.00000   3.14159
    D6        0.00000   0.00000   0.00000   0.00000   0.00000   0.00000
    D7        0.00000   0.00000   0.00000   0.00000   0.00000   0.00000
    D8        3.14159   0.00000   0.00000   0.00000   0.00000   3.14159
    D9        3.14159   0.00000   0.00000   0.00000   0.00000   3.14159
   D10        0.00000   0.00000   0.00000   0.00000   0.00000   0.00000
   D11        0.00000   0.00000   0.00000   0.00000   0.00000   0.00000
   D12        3.14159   0.00000   0.00000   0.00000   0.00000   3.14159
   D13        0.00000   0.00000   0.00000   0.00000   0.00000   0.00000
   D14        3.14159   0.00000   0.00000   0.00000   0.00000   3.14159
   D15        0.00000   0.00000   0.00000   0.00000   0.00000   0.00000
   D16        3.14159   0.00000   0.00000   0.00000   0.00000   3.14159
         Item               Value     Threshold  Converged?
 Maximum Force            0.000221     0.000450     YES
 RMS     Force            0.000063     0.000300     YES
 Maximum Displacement     0.000664     0.001800     YES
 RMS     Displacement     0.000211     0.001200     YES
 Predicted change in Energy=-2.724461D-07
 Optimization completed.
    -- Stationary point found.
                         ----------------------------
                         !   Optimized Parameters   !
                         ! (Angstroms and Degrees)  !
 ------------------------                            -------------------------
 ! Name  Definition              Value          Derivative Info.             !
 -----------------------------------------------------------------------------
 ! R1    R(1,2)                  1.0778         -DE/DX =    0.               !
 ! R2    R(2,4)                  1.3848         -DE/DX =    0.0001           !
 ! R3    R(2,9)                  1.3661         -DE/DX =   -0.0002           !
 ! R4    R(3,4)                  1.0776         -DE/DX =    0.               !
 ! R5    R(4,6)                  1.4169         -DE/DX =   -0.0001           !
 ! R6    R(5,6)                  1.0778         -DE/DX =    0.               !
 ! R7    R(6,7)                  1.3456         -DE/DX =    0.               !
 ! R8    R(7,9)                  1.3703         -DE/DX =   -0.0001           !
 ! R9    R(8,9)                  1.0043         -DE/DX =    0.               !
 ! A1    A(1,2,4)              131.4726         -DE/DX =   -0.0001           !
 ! A2    A(1,2,9)              122.3659         -DE/DX =    0.               !
 ! A3    A(4,2,9)              106.1615         -DE/DX =    0.0001           !
 ! A4    A(2,4,3)              127.13           -DE/DX =    0.0001           !
 ! A5    A(2,4,6)              105.2601         -DE/DX =   -0.0002           !
 ! A6    A(3,4,6)              127.61           -DE/DX =    0.0001           !
 ! A7    A(4,6,5)              128.7016         -DE/DX =    0.               !
 ! A8    A(4,6,7)              111.7282         -DE/DX =    0.0001           !
 ! A9    A(5,6,7)              119.5702         -DE/DX =    0.               !
 ! A10   A(6,7,9)              103.8974         -DE/DX =    0.               !
 ! A11   A(2,9,7)              112.9528         -DE/DX =    0.               !
 ! A12   A(2,9,8)              128.2763         -DE/DX =    0.               !
 ! A13   A(7,9,8)              118.7708         -DE/DX =    0.               !
 ! D1    D(1,2,4,3)              0.             -DE/DX =    0.               !
 ! D2    D(1,2,4,6)            180.             -DE/DX =    0.               !
 ! D3    D(9,2,4,3)            180.             -DE/DX =    0.               !
 ! D4    D(9,2,4,6)              0.             -DE/DX =    0.               !
 ! D5    D(1,2,9,7)            180.             -DE/DX =    0.               !
 ! D6    D(1,2,9,8)              0.             -DE/DX =    0.               !
 ! D7    D(4,2,9,7)              0.             -DE/DX =    0.               !
 ! D8    D(4,2,9,8)            180.             -DE/DX =    0.               !
 ! D9    D(2,4,6,5)            180.             -DE/DX =    0.               !
 ! D10   D(2,4,6,7)              0.             -DE/DX =    0.               !
 ! D11   D(3,4,6,5)              0.             -DE/DX =    0.               !
 ! D12   D(3,4,6,7)            180.             -DE/DX =    0.               !
 ! D13   D(4,6,7,9)              0.             -DE/DX =    0.               !
 ! D14   D(5,6,7,9)            180.             -DE/DX =    0.               !
 ! D15   D(6,7,9,2)              0.             -DE/DX =    0.               !
 ! D16   D(6,7,9,8)            180.             -DE/DX =    0.               !
 -----------------------------------------------------------------------------
 GradGradGradGradGradGradGradGradGradGradGradGradGradGradGradGradGradGrad

 1\1\GINC-INDIUM\Freq\RB3PW91\6-31G\C3H4N2\RDJ3\22-Jun-2000\0\\#N GEOM=
 ALLCHECK GUESS=TCHECK RB3PW91/6-31G FREQ\\1H pyrazole C3H4N2 casno=288
 131\\0,1\H,-1.8915778854,0.,-1.1915137848\C,-0.9455297402,0.,-0.675170
 8037\H,0.6757376746,0.,-2.1758055874\C,0.3565956127,0.,-1.1465899168\H
 ,2.2483356598,0.,0.0783223001\C,1.1725979221,0.,0.0117864919\N,0.43755
 60189,0.,1.1389274961\H,-1.6025420985,0.,1.3602426278\N,-0.8564040358,
 0.,0.6880153349\\Version=IBM-RS6000-G98RevA.4\State=1-A'\HF=-226.04277
 21\RMSD=9.241e-09\RMSF=1.222e-04\Dipole=-0.8261969,0.,-0.5285375\Dipol
 eDeriv=-0.0022281,0.0000111,-0.0462277,0.0000285,0.2021922,-0.00003,-0
 .0424494,0.000027,0.0792647,0.1342777,-0.0001759,-0.1191476,-0.0000725
 ,-0.0746488,-0.0000244,-0.3028879,0.0000272,0.1918337,0.0985488,-0.000
 0121,0.0328411,-0.0001084,0.1789886,0.0000181,0.0371958,0.0000087,-0.0
 351321,-0.2684521,0.0000162,-0.0103962,0.0001513,-0.2111594,-0.0000048
 ,-0.0508671,-0.000114,0.0008116,-0.0401216,0.0001541,-0.0177171,-0.000
 1024,0.1631134,0.0000514,-0.0175374,0.0000178,0.0910218,0.2066304,-0.0
 001506,0.1040923,0.0002124,-0.0932904,-0.0000642,0.1918516,0.0001576,0
 .1150299,0.0479477,-0.000009,-0.1863177,-0.0003521,-0.2186748,0.000030
 2,-0.0465166,-0.0000727,-0.4794333,0.2187737,-0.0000505,-0.0302191,0.0
 00013,0.3848104,0.0000096,-0.0296851,0.0000428,0.2289658,-0.3953758,0.
 0002167,0.2730919,0.0002301,-0.3313312,0.0000141,0.2608961,-0.0000945,
 -0.1923618\Polar=48.301609,0.0027238,15.370861,-0.2409195,-0.0011676,4
 4.3122831\PG=CS [SG(C3H4N2)]\NImag=0\\0.30882248,0.00000032,0.02180587
 ,0.14117124,-0.00000029,0.13042975,-0.30541613,0.00000318,-0.12506340,
 0.87960469,0.00000206,-0.02840860,0.00000042,0.00000118,0.13007051,-0.
 13412950,-0.00000004,-0.12720283,0.10844301,0.00000207,0.65129349,0.00
 027208,-0.00000067,-0.00088161,0.00155517,-0.00000057,0.02778323,0.080
 57452,0.00000038,-0.00299363,0.00000049,-0.00000289,-0.00045671,0.0000
 0189,0.00000057,0.02391977,0.00063281,0.00000205,-0.00006895,-0.005618
 24,0.00000122,0.00022817,-0.09608655,-0.00000188,0.35652706,-0.0064892
 9,0.00000002,0.01140415,-0.35037874,-0.00000331,0.07671797,-0.08644104
 ,-0.00000203,0.09096619,0.63513218,-0.00000153,0.00210315,-0.00000065,
 0.00000004,-0.07011565,-0.00000223,-0.00000038,-0.03045502,0.00000145,
 0.00000410,0.12997995,-0.01647826,0.00000034,0.01259721,0.09829307,-0.
 00000374,-0.14298866,0.08797953,-0.00000246,-0.34550227,-0.12365501,0.
 00000181,0.85147069,-0.00026177,-0.00000155,0.00021385,0.00008831,0.00
 000040,-0.00044403,-0.00009553,0.00000307,-0.00068835,-0.00399183,-0.0
 0000200,0.00542767,0.38524544,0.00000006,0.00071489,0.00000055,-0.0000
 0548,0.00468929,0.00000224,0.00000184,-0.00193053,-0.00000532,-0.00000
 273,0.00135643,-0.00000275,0.00000311,0.02556547,-0.00098383,0.0000000
 6,0.00096069,-0.00309083,0.00000018,-0.00574849,0.00089406,-0.00000002
 ,0.00018920,-0.02324478,-0.00000002,0.00666055,0.01919225,-0.00000049,
 0.05746828,-0.00370946,0.00000197,0.00488652,-0.06108494,0.00000393,-0
 .00446857,0.01252858,-0.00000070,0.01349997,-0.18185785,-0.00000284,-0
 .10239045,-0.36840785,-0.00000164,-0.03048987,0.90290910,-0.00000008,0
 .00544777,-0.00000076,0.00000675,0.01244204,-0.00000417,-0.00000308,-0
 .00170721,0.00000870,0.00000558,-0.07132676,0.00000336,-0.00000493,-0.
 03281666,0.00000087,0.00000061,0.14593389,0.00094901,-0.00000472,-0.00
 217466,-0.06625828,-0.00000140,0.03265890,-0.01767714,0.00000496,-0.00
 919895,-0.07432906,-0.00000105,-0.23243199,-0.02158831,0.00001185,-0.0
 6044663,-0.00311803,-0.00001648,0.59396195,0.00090379,-0.00000093,0.00
 095964,-0.05873748,-0.00000327,-0.04989767,-0.00219013,-0.00000138,-0.
 00073514,0.02208545,0.00000321,0.03348907,-0.01255716,-0.00000003,0.02
 954823,-0.17288427,0.00000144,0.14458586,0.46323536,0.00000104,0.00593
 051,0.00000106,-0.00000536,0.01886015,0.00000611,0.00000260,0.00623183
 ,-0.00000760,-0.00000841,0.02174842,-0.00000501,0.00000716,-0.00692096
 ,-0.00000057,0.00000250,-0.07336509,0.00001280,-0.00000519,0.10449650,
 0.00293872,0.00000233,-0.00464395,-0.02383019,0.00000438,-0.07247108,-
 0.00594860,-0.00000070,-0.00265153,-0.03157491,-0.00000229,-0.08271723
 ,-0.00401269,-0.00000384,0.00493485,0.09519984,0.00000442,-0.28441604,
 -0.05748229,0.00000030,0.53957222,-0.00018703,0.00000094,0.00050360,0.
 01034299,0.00000040,-0.00774432,0.00063123,0.00000044,0.00004343,0.002
 00318,-0.00000154,-0.00382792,-0.00042405,0.00000009,0.00136490,-0.006
 93226,-0.00000181,-0.00561566,-0.02008164,0.00000318,0.02690096,0.3049
 0186,-0.00000034,-0.00145062,-0.00000006,0.00000052,-0.00525357,-0.000
 00067,0.00000009,0.00192077,-0.00000018,0.00000071,0.00370723,0.000001
 63,-0.00000040,0.00179274,-0.00000003,-0.00000077,0.00472720,-0.000000
 71,0.00000063,-0.00955535,-0.00000115,0.00000047,0.01643470,-0.0006945
 1,-0.00000065,0.00000297,0.02734440,-0.00000033,-0.00603090,0.00121860
 ,-0.00000069,-0.00004795,-0.00236785,0.00000157,-0.00669167,-0.0004620
 5,-0.00000071,0.00099512,-0.00721871,0.00000265,0.00078661,-0.01416055
 ,-0.00000385,0.01460319,-0.21236173,-0.00000040,0.26149030,0.00606534,
 -0.00000328,-0.03319399,-0.11597387,-0.00000082,-0.01626012,-0.0068348
 8,0.00000253,-0.00201412,-0.03006206,0.00000095,0.02116231,0.00040446,
 0.00000479,0.00680986,-0.12056105,-0.00000448,0.04305161,-0.21977392,0
 .00000248,-0.00219085,-0.29025427,-0.00000091,0.20870240,0.77699023,-0
 .00000191,-0.00314934,-0.00000077,0.00000207,-0.06182747,-0.00000521,-
 0.00000039,0.00547073,0.00000156,0.00000606,0.01300225,0.00000683,-0.0
 0000484,0.00754933,0.00000001,-0.00000307,0.01066482,-0.00000525,0.000
 00551,-0.06742602,-0.00000344,-0.00000218,-0.01232310,0.00000240,-0.00
 000126,0.10803880,0.00659433,0.00000092,-0.00990022,-0.01021956,-0.000
 00281,-0.32973861,0.00271849,-0.00000158,0.00052523,0.07608329,0.00000
 141,-0.06039662,0.00236166,-0.00000153,-0.00501355,0.03409930,0.000001
 40,-0.03873918,-0.08630714,-0.00000325,-0.11221043,0.20073674,0.000001
 57,-0.26510767,-0.22606709,0.00000388,0.82058104\\-0.00002859,0.,0.000
 05360,0.00002619,0.,-0.00045503,0.00000714,0.,0.00002959,-0.00022224,0
 .,0.00018442,-0.00001352,0.,0.00000645,0.00018063,0.,0.00000827,0.0000
 9680,0.,-0.00004298,0.00000113,0.,-0.00003012,-0.00004754,0.,0.0002457
 9\\\@

 The best way to pay for a lovely moment is to enjoy it.
 -- Richard Bach
 Job cpu time:  0 days  0 hours  6 minutes 56.7 seconds.
 File lengths (MBytes):  RWF=   10 Int=    0 D2E=    0 Chk=    3 Scr=    1
 Normal termination of Gaussian 98.
