 Gaussian 98, Revision A.7,
 Gaussian 98:  SGI64-G98RevA.7 11-Apr-1999

 ------------------------
 #B3PW91/6-311G* opt freq
 ------------------------

 -------------------------------
 1H pyrazole C3H4N2 casno=288131
 -------------------------------
 Symbolic Z-matrix:
 Charge =  0 Multiplicity = 1

 SCF Done:  E(RB+HF-PW91) =  -226.100214070     A.U. after   14 cycles
 SCF Done:  E(RB+HF-PW91) =  -226.153730028     A.U. after   13 cycles
 SCF Done:  E(RB+HF-PW91) =  -226.163578326     A.U. after   13 cycles
 SCF Done:  E(RB+HF-PW91) =  -226.163722363     A.U. after   10 cycles
 SCF Done:  E(RB+HF-PW91) =  -226.163769403     A.U. after   10 cycles
 SCF Done:  E(RB+HF-PW91) =  -226.163771251     A.U. after    7 cycles
 Optimization completed.
    -- Stationary point found.
 Normal termination of Gaussian 98.

 ----------------------------------------------------
 #N Geom=AllCheck Guess=TCheck RB3PW91/6-311G(d) Freq
 ----------------------------------------------------

 1H pyrazole C3H4N2 casno=288131
 -------------------------------
 Redundant internal coordinates taken from checkpointfile:
 /tmp/Gau-1670409.chk
 Charge =  0 Multiplicity = 1

                         Standard orientation:
 ---------------------------------------------------------------------
 Center     Atomic     Atomic              Coordinates (Angstroms)
 Number     Number      Type              X           Y           Z
 ---------------------------------------------------------------------
    1          1             0        2.102022    0.728148    0.000000
    2          6             0        1.108728    0.304481    0.000000
    3          1             0        1.261224   -1.895393    0.000000
    4          6             0        0.661022   -0.998288    0.000000
    5          1             0       -1.484682   -1.673799    0.000000
    6          6             0       -0.744028   -0.885973    0.000000
    7          7             0       -1.140946    0.380529    0.000000
    8          1             0       -0.046278    2.085860    0.000000
    9          7             0        0.000000    1.081452    0.000000
 ---------------------------------------------------------------------

 SCF Done:  E(RB+HF-PW91) =  -226.163771251     A.U. after    1 cycles

  The electronic state is 1-A'.
 Alpha  occ. eigenvalues --  -14.37920 -14.31561 -10.19699 -10.17317 -10.15431
 Alpha  occ. eigenvalues --   -1.05832  -0.82487  -0.78719  -0.61852  -0.60210
 Alpha  occ. eigenvalues --   -0.55151  -0.45054  -0.44527  -0.43324  -0.40312
 Alpha  occ. eigenvalues --   -0.29368  -0.26456  -0.25468
 Alpha virt. eigenvalues --    0.01496   0.04901   0.06539   0.08944   0.10117
 Alpha virt. eigenvalues --    0.11982   0.20371   0.21497   0.25189   0.26816
 Alpha virt. eigenvalues --    0.34947   0.38803   0.39431   0.40891   0.42208

  Exact polarizability:  47.955   1.802  48.989  -0.001  -0.001  21.681
 Approx polarizability:  78.478   1.080  80.014   0.000   0.000  31.610

                     1                      2                      3
                    A"                     A"                     A"
 Frequencies --   538.5319               641.6569               699.0609
 Red. masses --     1.7434                 2.5011                 2.7920
 Frc consts  --     0.2979                 0.6067                 0.8039
 IR Inten    --    63.7966                 0.2386                22.2738
 Raman Activ --     0.0000                 0.0000                 0.0000

                     4                      5                      6
                    A"                     A"                     A"
 Frequencies --   747.9814               835.7499               888.0452
 Red. masses --     1.2186                 1.2147                 1.3273
 Frc consts  --     0.4017                 0.4999                 0.6167
 IR Inten    --    99.2999                13.6826                 5.3608
 Raman Activ --     0.0000                 0.0000                 0.0000

                     7                      8                      9
                    A'                     A'                     A'
 Frequencies --   925.2726               944.9347              1058.7952
 Red. masses --     5.5761                 3.7552                 1.4892
 Frc consts  --     2.8127                 1.9755                 0.9837
 IR Inten    --     9.6405                 4.5298                21.7026
 Raman Activ --     0.0000                 0.0000                 0.0000

                    10                     11                     12
                    A'                     A'                     A'
 Frequencies --  1062.9378              1157.2087              1200.0474
 Red. masses --     1.4925                 1.8117                 3.3150
 Frc consts  --     0.9935                 1.4294                 2.8128
 IR Inten    --    28.3834                18.7868                 2.0038
 Raman Activ --     0.0000                 0.0000                 0.0000

                    13                     14                     15
                    A'                     A'                     A'
 Frequencies --  1293.9311              1400.4299              1443.7663
 Red. masses --     1.7743                 2.7064                 4.0090
 Frc consts  --     1.7503                 3.1272                 4.9236
 IR Inten    --     3.5144                 3.5273                14.6537
 Raman Activ --     0.0000                 0.0000                 0.0000

                    16                     17                     18
                    A'                     A'                     A'
 Frequencies --  1506.6319              1585.2648              3245.7918
 Red. masses --     2.6781                 2.8088                 1.0929
 Frc consts  --     3.5817                 4.1589                 6.7837
 IR Inten    --     6.2447                 6.0383                 5.0829
 Raman Activ --     0.0000                 0.0000                 0.0000

                    19                     20                     21
                    A'                     A'                     A'
 Frequencies --  3259.6681              3277.9553              3694.1898
 Red. masses --     1.0942                 1.1075                 1.0815
 Frc consts  --     6.8502                 7.0116                 8.6962
 IR Inten    --     4.3655                 1.8425                63.3594
 Raman Activ --     0.0000                 0.0000                 0.0000

 - Thermochemistry -
 -------------------
 Temperature   298.150 Kelvin.  Pressure   1.00000 Atm.
 Atom  1 has atomic number  1 and mass   1.00783

 Molecular mass:    68.03745 amu.
 Principal axes and moments of inertia in atomic units:
                           1         2         3
     EIGENVALUES --   185.82668 190.37794 376.20462
           X            0.91225   0.40964   0.00000
           Y           -0.40964   0.91225   0.00000
           Z            0.00000   0.00000   1.00000
 THIS MOLECULE IS AN ASYMMETRIC TOP.
 ROTATIONAL SYMMETRY NUMBER  1.
 ROTATIONAL TEMPERATURES (KELVIN)      0.46610     0.45496     0.23023
 ROTATIONAL CONSTANTS (GHZ)            9.71196     9.47978     4.79723
 Zero-point vibrational energy     187860.7 (Joules/Mol)
                                   44.89978 (Kcal/Mol)
 WARNING-- EXPLICIT CONSIDERATION OF   1 DEGREES OF FREEDOM AS
           VIBRATIONS MAY CAUSE SIGNIFICANT ERROR
 VIBRATIONAL TEMPERATURES:    774.82   923.20  1005.79  1076.17  1202.45
          (KELVIN)           1277.69  1331.25  1359.54  1523.36  1529.32
                             1664.96  1726.59  1861.67  2014.89  2077.25
                             2167.69  2280.83  4669.94  4689.91  4716.22
                             5315.08

 Zero-point correction=                           0.071552 (Hartree/Particle)
 Thermal correction to Energy=                    0.075276
 Thermal correction to Enthalpy=                  0.076220
 Thermal correction to Gibbs Free Energy=         0.045302
 Sum of electronic and zero-point Energies=           -226.092219
 Sum of electronic and thermal Energies=              -226.088495
 Sum of electronic and thermal Enthalpies=            -226.087551
 Sum of electronic and thermal Free Energies=         -226.118469

                     E (Thermal)             CV                S
                      KCAL/MOL        CAL/MOL-KELVIN    CAL/MOL-KELVIN
 TOTAL                   47.237             13.207             65.072
 ELECTRONIC               0.000              0.000              0.000
 TRANSLATIONAL            0.889              2.981             38.570
 ROTATIONAL               0.889              2.981             24.102
 VIBRATIONAL             45.459              7.246              2.400
 VIBRATION  1             0.894              1.165              0.568
                       Q            LOG10(Q)             LN(Q)
 TOTAL BOT       0.145366D-20        -20.837537        -47.980203
 TOTAL V=0       0.118588D+13         12.074040         27.801505
 VIB (BOT)       0.159572D-32        -32.797044        -75.517984
 VIB (BOT)  1    0.294608D+00         -0.530755         -1.222109
 VIB (V=0)       0.130177D+01          0.114534          0.263724
 VIB (V=0)  1    0.108034D+01          0.033560          0.077275
 ELECTRONIC      0.100000D+01          0.000000          0.000000
 TRANSLATIONAL   0.220588D+08          7.343582         16.909224
 ROTATIONAL      0.412975D+05          4.615924         10.628557
 ***** Axes restored to original set *****
 -------------------------------------------------------------------
 Center     Atomic                   Forces (Hartrees/Bohr)
 Number     Number              X              Y              Z
 -------------------------------------------------------------------
    1          1           0.000031327    0.000000000   -0.000074308
    2          6          -0.000119580    0.000000000    0.000458504
    3          1           0.000023298    0.000000000    0.000003379
    4          6           0.000131126    0.000000000   -0.000264501
    5          1           0.000018151    0.000000000    0.000016870
    6          6          -0.000207241    0.000000000    0.000190456
    7          7           0.000119131    0.000000000    0.000003849
    8          1           0.000054993    0.000000000    0.000070649
    9          7          -0.000051206    0.000000000   -0.000404897
 -------------------------------------------------------------------
 Cartesian Forces:  Max     0.000458504 RMS     0.000147493

 GradGradGradGradGradGradGradGradGradGradGradGradGradGradGradGradGradGrad
 Berny optimization.
 Internal  Forces:  Max     0.000232615 RMS     0.000066753
 Search for a local minimum.
 Step number   1 out of a maximum of  48
 All quantities printed in internal units (Hartrees-Bohrs-Radians)
 Second derivative matrix not updated -- analytic derivatives used.
     Eigenvalues ---    0.00748   0.01135   0.01583   0.02733   0.05900
     Eigenvalues ---    0.06247   0.09338   0.10328   0.11095   0.12139
     Eigenvalues ---    0.22456   0.26666   0.35173   0.36870   0.37437
     Eigenvalues ---    0.37645   0.40632   0.43461   0.48418   0.49851
     Eigenvalues ---    0.576851000.000001000.000001000.000001000.00000
     Eigenvalues --- 1000.000001000.000001000.000001000.000001000.00000
     Eigenvalues --- 1000.000001000.000001000.000001000.000001000.00000
     Eigenvalues --- 1000.000001000.000001000.00000
 Angle between quadratic step and forces=  30.71 degrees.
 Linear search not attempted -- first point.
 Iteration  1 RMS(Cart)=  0.00027238 RMS(Int)=  0.00000011
 Iteration  2 RMS(Cart)=  0.00000011 RMS(Int)=  0.00000001
 Variable       Old X    -DE/DX   Delta X   Delta X   Delta X     New X
                                 (Linear)    (Quad)   (Total)
    R1        2.04066   0.00001   0.00000   0.00003   0.00003   2.04069
    R2        2.60319   0.00014   0.00000   0.00044   0.00044   2.60364
    R3        2.55844  -0.00023   0.00000  -0.00073  -0.00073   2.55771
    R4        2.03971   0.00000   0.00000  -0.00002  -0.00002   2.03969
    R5        2.66363   0.00006   0.00000   0.00018   0.00018   2.66381
    R6        2.04339   0.00002   0.00000   0.00009   0.00009   2.04347
    R7        2.50812  -0.00015   0.00000  -0.00032  -0.00032   2.50780
    R8        2.53043   0.00002   0.00000   0.00026   0.00026   2.53069
    R9        1.90007   0.00001   0.00000   0.00001   0.00001   1.90008
    A1        2.30497  -0.00009   0.00000  -0.00093  -0.00093   2.30405
    A2        2.12718   0.00006   0.00000   0.00069   0.00069   2.12787
    A3        1.85103   0.00002   0.00000   0.00024   0.00024   1.85127
    A4        2.22093   0.00008   0.00000   0.00036   0.00036   2.22129
    A5        1.82204  -0.00012   0.00000  -0.00049  -0.00049   1.82155
    A6        2.24021   0.00005   0.00000   0.00013   0.00013   2.24034
    A7        2.24558  -0.00003   0.00000  -0.00017  -0.00017   2.24540
    A8        1.95427   0.00007   0.00000   0.00033   0.00033   1.95460
    A9        2.08334  -0.00004   0.00000  -0.00016  -0.00016   2.08319
   A10        1.81799  -0.00004   0.00000  -0.00019  -0.00019   1.81780
   A11        1.97945   0.00007   0.00000   0.00011   0.00011   1.97957
   A12        2.22809   0.00006   0.00000   0.00071   0.00071   2.22880
   A13        2.07565  -0.00013   0.00000  -0.00082  -0.00082   2.07482
    D1        0.00000   0.00000   0.00000   0.00000   0.00000   0.00000
    D2        3.14159   0.00000   0.00000   0.00000   0.00000   3.14159
    D3        3.14159   0.00000   0.00000   0.00000   0.00000   3.14159
    D4        0.00000   0.00000   0.00000   0.00000   0.00000   0.00000
    D5        3.14159   0.00000   0.00000   0.00000   0.00000   3.14159
    D6        0.00000   0.00000   0.00000   0.00000   0.00000   0.00000
    D7        0.00000   0.00000   0.00000   0.00000   0.00000   0.00000
    D8        3.14159   0.00000   0.00000   0.00000   0.00000   3.14159
    D9        3.14159   0.00000   0.00000   0.00000   0.00000   3.14159
   D10        0.00000   0.00000   0.00000   0.00000   0.00000   0.00000
   D11        0.00000   0.00000   0.00000   0.00000   0.00000   0.00000
   D12        3.14159   0.00000   0.00000   0.00000   0.00000   3.14159
   D13        0.00000   0.00000   0.00000   0.00000   0.00000   0.00000
   D14        3.14159   0.00000   0.00000   0.00000   0.00000   3.14159
   D15        0.00000   0.00000   0.00000   0.00000   0.00000   0.00000
   D16        3.14159   0.00000   0.00000   0.00000   0.00000   3.14159
         Item               Value     Threshold  Converged?
 Maximum Force            0.000233     0.000450     YES
 RMS     Force            0.000067     0.000300     YES
 Maximum Displacement     0.000789     0.001800     YES
 RMS     Displacement     0.000272     0.001200     YES
 Predicted change in Energy=-3.584104D-07
 Optimization completed.
    -- Stationary point found.
                         ----------------------------
                         !   Optimized Parameters   !
                         ! (Angstroms and Degrees)  !
 ------------------------                            -------------------------
 ! Name  Definition              Value          Derivative Info.             !
 -----------------------------------------------------------------------------
 ! R1    R(1,2)                  1.0799         -DE/DX =    0.               !
 ! R2    R(2,4)                  1.3776         -DE/DX =    0.0001           !
 ! R3    R(2,9)                  1.3539         -DE/DX =   -0.0002           !
 ! R4    R(3,4)                  1.0794         -DE/DX =    0.               !
 ! R5    R(4,6)                  1.4095         -DE/DX =    0.0001           !
 ! R6    R(5,6)                  1.0813         -DE/DX =    0.               !
 ! R7    R(6,7)                  1.3272         -DE/DX =   -0.0001           !
 ! R8    R(7,9)                  1.339          -DE/DX =    0.               !
 ! R9    R(8,9)                  1.0055         -DE/DX =    0.               !
 ! A1    A(1,2,4)              132.0652         -DE/DX =   -0.0001           !
 ! A2    A(1,2,9)              121.8786         -DE/DX =    0.0001           !
 ! A3    A(4,2,9)              106.0563         -DE/DX =    0.               !
 ! A4    A(2,4,3)              127.2502         -DE/DX =    0.0001           !
 ! A5    A(2,4,6)              104.3953         -DE/DX =   -0.0001           !
 ! A6    A(3,4,6)              128.3545         -DE/DX =    0.               !
 ! A7    A(4,6,5)              128.662          -DE/DX =    0.               !
 ! A8    A(4,6,7)              111.9712         -DE/DX =    0.0001           !
 ! A9    A(5,6,7)              119.3668         -DE/DX =    0.               !
 ! A10   A(6,7,9)              104.163          -DE/DX =    0.               !
 ! A11   A(2,9,7)              113.4142         -DE/DX =    0.0001           !
 ! A12   A(2,9,8)              127.6599         -DE/DX =    0.0001           !
 ! A13   A(7,9,8)              118.9258         -DE/DX =   -0.0001           !
 ! D1    D(1,2,4,3)              0.             -DE/DX =    0.               !
 ! D2    D(1,2,4,6)            180.             -DE/DX =    0.               !
 ! D3    D(9,2,4,3)            180.             -DE/DX =    0.               !
 ! D4    D(9,2,4,6)              0.             -DE/DX =    0.               !
 ! D5    D(1,2,9,7)            180.             -DE/DX =    0.               !
 ! D6    D(1,2,9,8)              0.             -DE/DX =    0.               !
 ! D7    D(4,2,9,7)              0.             -DE/DX =    0.               !
 ! D8    D(4,2,9,8)            180.             -DE/DX =    0.               !
 ! D9    D(2,4,6,5)            180.             -DE/DX =    0.               !
 ! D10   D(2,4,6,7)              0.             -DE/DX =    0.               !
 ! D11   D(3,4,6,5)              0.             -DE/DX =    0.               !
 ! D12   D(3,4,6,7)            180.             -DE/DX =    0.               !
 ! D13   D(4,6,7,9)              0.             -DE/DX =    0.               !
 ! D14   D(5,6,7,9)            180.             -DE/DX =    0.               !
 ! D15   D(6,7,9,2)              0.             -DE/DX =    0.               !
 ! D16   D(6,7,9,8)            180.             -DE/DX =    0.               !
 -----------------------------------------------------------------------------
 GradGradGradGradGradGradGradGradGradGradGradGradGradGradGradGradGradGrad

 1\1\ NATIONAL INSTITUTE OF STANDARDS AND TECHNOLOGY-NEVA\Freq\RB3PW91\
 6-311G(d)\C3H4N2\RDJ3\26-May-2000\0\\#N GEOM=ALLCHECK GUESS=TCHECK RB3
 PW91/6-311G(D) FREQ\\1H pyrazole C3H4N2 casno=288131\\0,1\H,-1.8915790
 752,0.,-1.1707363483\C,-0.9360001834,0.,-0.6677498052\H,0.6739889597,0
 .,-2.1746120257\C,0.3570386082,0.,-1.1428269283\H,2.2353648465,0.,0.09
 50152774\C,1.1568089661,0.,0.017840096\N,0.4250354037,0.,1.125124162\H
 ,-1.588605001,0.,1.3525118852\N,-0.8387859858,0.,0.6826245575\\Version
 =SGI64-G98RevA.7\State=1-A'\HF=-226.1637713\RMSD=4.154e-09\RMSF=1.475e
 -04\Dipole=-0.8150784,0.,-0.4051852\DipoleDeriv=-0.0206312,0.0000696,-
 0.0590083,-0.0000424,0.1914626,0.0000143,-0.0444126,0.0000414,0.074355
 6,0.1432459,-0.0000951,-0.1265173,0.00006,-0.0938899,-0.00002,-0.28423
 77,0.0001812,0.2152101,0.0977879,0.0000035,0.0354913,-0.0000251,0.1800
 373,-0.000003,0.0426723,-0.0000074,-0.045358,-0.2450826,-0.0000447,-0.
 0004996,0.0000317,-0.2404617,0.0000028,-0.051839,-0.0000958,-0.0101739
 ,-0.0640449,-0.0000407,-0.0057243,0.0000033,0.1525133,0.0000064,-0.032
 3931,0.0000058,0.0844101,0.2252265,0.0001697,0.1108205,0.0000243,-0.08
 13405,-0.0000039,0.1919518,0.0000117,0.1937687,-0.0047576,-0.0002479,-
 0.2186498,-0.0000522,-0.2225474,0.0000345,-0.1036857,0.0000535,-0.5933
 168,0.1930976,0.000117,-0.0309903,-0.0000169,0.3324816,0.0000306,-0.01
 8831,-0.0001294,0.2092007,-0.3248395,0.0000688,0.2950782,0.0000175,-0.
 2182547,-0.0000618,0.3007738,-0.0000611,-0.1280949\Polar=50.3414371,0.
 000911,21.6813035,-0.1401409,0.0000166,46.6017275\PG=CS [SG(C3H4N2)]\N
 Imag=0\\0.30299400,0.00000107,0.02000800,0.13405933,0.00000076,0.12181
 773,-0.29793604,-0.00000216,-0.11499204,0.86045197,-0.00000149,-0.0241
 9262,-0.00000104,0.00000280,0.11704464,-0.12471410,0.00000338,-0.11990
 548,0.09685794,-0.00000390,0.64963324,0.00020175,-0.00000005,-0.000820
 53,0.00206445,-0.00000011,0.02577576,0.07584102,0.00000094,-0.00269617
 ,0.00000067,-0.00000147,-0.00209600,0.00000141,0.00000032,0.02140697,0
 .00051844,-0.00000011,-0.00020147,-0.00326505,0.00000076,0.00027913,-0
 .09278894,-0.00000122,0.34582955,-0.00665575,-0.00000091,0.00896999,-0
 .34629201,0.00000101,0.07518472,-0.08320680,-0.00000044,0.08638759,0.6
 2234843,-0.00000083,0.00080963,-0.00000050,0.00000103,-0.06295976,-0.0
 0000149,-0.00000020,-0.02505785,0.00000087,0.00000067,0.11453614,-0.01
 503125,-0.00000289,0.01279808,0.10177847,0.00000259,-0.14220785,0.0839
 3773,-0.00000009,-0.33307625,-0.12004862,0.00000032,0.83215640,-0.0002
 4208,0.00000054,0.00025207,-0.00081199,-0.00000036,-0.00128872,-0.0001
 6237,-0.00000025,-0.00050070,-0.00474795,-0.00000020,0.00380803,0.3694
 2271,0.00000014,0.00085161,0.00000013,0.00000010,0.00445388,-0.0000006
 1,0.00000081,-0.00183212,-0.00000210,-0.00000012,0.00067849,0.00000264
 ,-0.00000107,0.02417299,-0.00104450,0.00000029,0.00105212,-0.00296705,
 -0.00000032,-0.00587018,0.00087209,0.00000021,0.00009783,-0.02153255,-
 0.00000014,0.00691101,0.02172204,0.,0.05586012,-0.00461270,0.00000302,
 0.00451890,-0.05549294,-0.00000343,-0.00017830,0.01337818,0.00000143,0
 .01219230,-0.18099297,-0.00000118,-0.10653530,-0.34873336,-0.00000001,
 -0.03335349,0.88473912,-0.00000029,0.00482852,-0.00000043,0.,0.0115460
 9,0.00000231,-0.00000144,-0.00320946,0.00000403,-0.00000001,-0.0650688
 4,-0.00000527,0.00000256,-0.02974375,0.00000008,-0.00000004,0.13820453
 ,0.00090675,0.00000095,-0.00217846,-0.07007086,-0.00000116,0.03530108,
 -0.01484528,0.00000045,-0.00870938,-0.07291465,-0.00000036,-0.23337063
 ,-0.02548420,-0.00000046,-0.06076813,-0.00965105,0.00000060,0.61162845
 ,0.00055080,-0.00000538,0.00049185,-0.05835739,0.00000583,-0.05111473,
 -0.00198399,-0.00000136,-0.00103188,0.02808884,0.00000142,0.03934317,-
 0.01388524,0.00000075,0.02826103,-0.18167328,-0.00000349,0.14344639,0.
 51259360,0.00000101,0.00661390,0.00000055,-0.00000059,0.01728591,-0.00
 000092,0.00000070,0.00658480,-0.00000253,-0.00000076,0.02048213,0.0000
 0305,-0.00000187,-0.00785739,-0.00000011,0.00000102,-0.07298576,0.0000
 0063,0.00000176,0.10642275,0.00213621,0.00000110,-0.00569573,-0.020005
 79,-0.00000104,-0.06738840,-0.00606564,0.00000017,-0.00423017,-0.03303
 234,-0.00000037,-0.07823235,-0.00075822,-0.00000047,0.00637349,0.10908
 091,0.00000101,-0.30839592,-0.04641922,-0.00000100,0.57025410,-0.00022
 539,0.00000271,0.00040221,0.01053897,-0.00000327,-0.00376099,0.0006840
 1,0.00000120,-0.00008434,0.00182354,-0.00000122,-0.00319045,-0.0004274
 5,-0.00000042,0.00146823,-0.00767326,0.00000135,-0.00532383,-0.0228537
 2,0.00000038,0.02493123,0.29936561,0.00000069,-0.00148586,0.00000052,-
 0.00000144,-0.00798172,0.00000182,0.00000015,0.00230486,-0.00000046,-0
 .00000017,0.00308898,-0.00000079,-0.00000068,0.00223438,0.00000003,0.0
 0000152,0.00451338,0.00000061,-0.00000301,-0.01256074,0.00000003,0.000
 00148,0.01284814,-0.00074209,-0.00000277,0.00003471,0.02556234,0.00000
 339,-0.00609267,0.00124754,-0.00000133,0.00015171,-0.00225107,0.000001
 31,-0.00696836,-0.00047885,0.00000041,0.00095138,-0.00586462,-0.000000
 80,0.00083631,-0.01111717,-0.00000075,0.01693344,-0.20717261,-0.000001
 58,0.25425662,0.00592544,0.00000117,-0.03288177,-0.11416505,-0.0000009
 8,-0.01676159,-0.00681626,-0.00000037,-0.00142739,-0.03036534,0.000000
 51,0.01593818,-0.00041225,-0.00000019,0.00657421,-0.11893881,0.0000013
 6,0.05393673,-0.26247961,-0.00000166,-0.02986714,-0.28123229,0.0000014
 6,0.20081653,0.80848416,-0.00000124,-0.00473700,-0.00000066,0.00000174
 ,-0.05310042,-0.00000203,-0.00000019,0.00459496,0.00000076,0.00000071,
 0.01349107,0.00000043,0.00000133,0.00704191,-0.00000005,-0.00000234,0.
 01191529,-0.00000126,0.00000350,-0.06398559,0.00000054,-0.00000221,-0.
 00296142,0.00000212,-0.00000130,0.08774121,0.00391121,-0.00000071,-0.0
 0772150,-0.01289796,0.00000072,-0.34374885,0.00268725,-0.00000028,-0.0
 0014089,0.07923694,0.00000036,-0.05801011,0.00272855,0.00000046,-0.004
 60763,0.02979064,-0.00000155,-0.03434331,-0.10185942,0.00000107,-0.129
 61844,0.19273054,-0.00000019,-0.26010312,-0.19632773,0.00000013,0.8382
 9384\\-0.00003133,0.,0.00007431,0.00011958,0.,-0.00045850,-0.00002330,
 0.,-0.00000338,-0.00013113,0.,0.00026450,-0.00001815,0.,-0.00001687,0.
 00020724,0.,-0.00019046,-0.00011913,0.,-0.00000385,-0.00005499,0.,-0.0
 0007065,0.00005121,0.,0.00040490\\\@

 IF THERE IS ONE WAY BETTER THAN ANOTHER IT IS THE WAY OF NATURE.

                          -- ARISTOTLE
 Job cpu time:  0 days  0 hours  5 minutes 39.7 seconds.
 File lengths (MBytes):  RWF=   21 Int=    0 D2E=    0 Chk=    4 Scr=    1
 Normal termination of Gaussian 98.
