 Gaussian 98, Revision A.4,
 Gaussian 98:  x86-Linux-G98RevA.4 11-Sep-1998

 -----------------------
 #B3PW91/6-31G* OPT FREQ
 -----------------------

 -------------------------------
 1H pyrazole C3H4N2 casno=288131
 -------------------------------
 Symbolic Z-matrix:
 Charge =  0 Multiplicity = 1

 SCF Done:  E(RB+HF-PW91) =  -226.113278404     A.U. after   14 cycles
 SCF Done:  E(RB+HF-PW91) =  -226.115132807     A.U. after   12 cycles
 SCF Done:  E(RB+HF-PW91) =  -226.115189098     A.U. after   10 cycles
 SCF Done:  E(RB+HF-PW91) =  -226.115195060     A.U. after    9 cycles
 Optimization completed.
    -- Stationary point found.
 Normal termination of Gaussian 98.

 ---------------------------------------------------
 #N Geom=AllCheck Guess=TCheck RB3PW91/6-31G(d) Freq
 ---------------------------------------------------

 1H pyrazole C3H4N2 casno=288131
 -------------------------------
 Redundant internal coordinates taken from checkpointfile:
 /wrk/rdj3/Gau-8841.chk
 Charge =  0 Multiplicity = 1

                         Standard orientation:
 ---------------------------------------------------------------------
 Center     Atomic     Atomic              Coordinates (Angstroms)
 Number     Number      Type              X           Y           Z
 ---------------------------------------------------------------------
    1          1             0        2.104043    0.731305    0.000000
    2          6             0        1.110209    0.306046    0.000000
    3          1             0        1.263389   -1.897552    0.000000
    4          6             0        0.662578   -0.999491    0.000000
    5          1             0       -1.481840   -1.679779    0.000000
    6          6             0       -0.743515   -0.888132    0.000000
    7          7             0       -1.144623    0.381001    0.000000
    8          1             0       -0.048864    2.089697    0.000000
    9          7             0        0.000000    1.082683    0.000000
 ---------------------------------------------------------------------

 SCF Done:  E(RB+HF-PW91) =  -226.115195060     A.U. after    1 cycles

  The electronic state is 1-A'.
 Alpha  occ. eigenvalues --  -14.39972 -14.33493 -10.21008 -10.18625 -10.16749
 Alpha  occ. eigenvalues --   -1.04997  -0.81820  -0.78026  -0.61279  -0.59529
 Alpha  occ. eigenvalues --   -0.54539  -0.44365  -0.43766  -0.42765  -0.39639
 Alpha  occ. eigenvalues --   -0.28739  -0.25771  -0.24765
 Alpha virt. eigenvalues --    0.02315   0.07556   0.08791   0.14099   0.16494
 Alpha virt. eigenvalues --    0.17689   0.22445   0.23554   0.29567   0.40190
 Alpha virt. eigenvalues --    0.43734   0.53964   0.55442   0.56310   0.60048

  Exact polarizability:  46.226   2.003  47.685   0.002   0.001  17.206
 Approx polarizability:  76.638   0.931  78.426   0.000   0.000  25.271

                     1                      2                      3
                    A"                     A"                     A"
 Frequencies --   522.7528               639.2284               697.9930
 Red. masses --     1.7217                 2.6421                 2.8559
 Frc consts  --     0.2772                 0.6361                 0.8198
 IR Inten    --    61.4725                 0.0633                23.1461
 Raman Activ --     0.0000                 0.0000                 0.0000

                     4                      5                      6
                    A"                     A"                     A"
 Frequencies --   753.8781               836.4102               890.8965
 Red. masses --     1.2135                 1.2056                 1.3054
 Frc consts  --     0.4064                 0.4969                 0.6104
 IR Inten    --    80.7390                11.8096                 4.6899
 Raman Activ --     0.0000                 0.0000                 0.0000

                     7                      8                      9
                    A'                     A'                     A'
 Frequencies --   919.6614               942.3507              1066.5329
 Red. masses --     5.6960                 3.8905                 1.5241
 Frc consts  --     2.8384                 2.0355                 1.0215
 IR Inten    --     8.9461                 5.3100                26.5322
 Raman Activ --     0.0000                 0.0000                 0.0000

                    10                     11                     12
                    A'                     A'                     A'
 Frequencies --  1070.6666              1166.1453              1202.8337
 Red. masses --     1.4390                 1.7771                 3.1944
 Frc consts  --     0.9719                 1.4239                 2.7230
 IR Inten    --    18.8803                16.8393                 2.0560
 Raman Activ --     0.0000                 0.0000                 0.0000

                    13                     14                     15
                    A'                     A'                     A'
 Frequencies --  1300.2070              1407.1826              1455.5685
 Red. masses --     1.6871                 2.7440                 4.1289
 Frc consts  --     1.6804                 3.2014                 5.1541
 IR Inten    --     3.7441                 3.2769                14.2979
 Raman Activ --     0.0000                 0.0000                 0.0000

                    16                     17                     18
                    A'                     A'                     A'
 Frequencies --  1514.1259              1592.2376              3270.2018
 Red. masses --     2.7470                 3.0397                 1.0923
 Frc consts  --     3.7105                 4.5405                 6.8823
 IR Inten    --     6.2894                 6.5665                 6.0631
 Raman Activ --     0.0000                 0.0000                 0.0000

                    19                     20                     21
                    A'                     A'                     A'
 Frequencies --  3286.2706              3303.4267              3686.8463
 Red. masses --     1.0939                 1.1070                 1.0817
 Frc consts  --     6.9607                 7.1173                 8.6629
 IR Inten    --     3.3010                 0.9704                69.4796
 Raman Activ --     0.0000                 0.0000                 0.0000

 - Thermochemistry -
 -------------------
 Temperature   298.150 Kelvin.  Pressure   1.00000 Atm.
 Atom  1 has atomic number  1 and mass   1.00783

 Molecular mass:    68.03745 amu.
 Principal axes and moments of inertia in atomic units:
                           1         2         3
     EIGENVALUES --   186.42061 191.05564 377.47624
           X            0.90904   0.41670   0.00000
           Y           -0.41670   0.90904   0.00000
           Z            0.00000   0.00000   1.00000
 THIS MOLECULE IS AN ASYMMETRIC TOP.
 ROTATIONAL SYMMETRY NUMBER  1.
 ROTATIONAL TEMPERATURES (KELVIN)      0.46461     0.45334     0.22945
 ROTATIONAL CONSTANTS (GHZ)            9.68102     9.44616     4.78107
 Zero-point vibrational energy     188563.9 (Joules/Mol)
                                   45.06785 (Kcal/Mol)
 WARNING-- EXPLICIT CONSIDERATION OF   1 DEGREES OF FREEDOM AS
           VIBRATIONS MAY CAUSE SIGNIFICANT ERROR
 VIBRATIONAL TEMPERATURES:    752.12   919.70  1004.25  1084.66  1203.40
          (KELVIN)           1281.79  1323.18  1355.82  1534.49  1540.44
                             1677.81  1730.60  1870.70  2024.61  2094.23
                             2178.48  2290.86  4705.06  4728.18  4752.87
                             5304.52

 Zero-point correction=                           0.071820 (Hartree/Particle)
 Thermal correction to Energy=                    0.075551
 Thermal correction to Enthalpy=                  0.076496
 Thermal correction to Gibbs Free Energy=         0.045560
 Sum of electronic and zero-point Energies=           -226.043375
 Sum of electronic and thermal Energies=              -226.039644
 Sum of electronic and thermal Enthalpies=            -226.038699
 Sum of electronic and thermal Free Energies=         -226.069635

                     E (Thermal)             CV                S
                      KCAL/MOL        CAL/MOL-KELVIN    CAL/MOL-KELVIN
 TOTAL                   47.409             13.209             65.109
 ELECTRONIC               0.000              0.000              0.000
 TRANSLATIONAL            0.889              2.981             38.570
 ROTATIONAL               0.889              2.981             24.112
 VIBRATIONAL             45.632              7.247              2.427
 VIBRATION  1             0.878              1.200              0.604
                       Q            LOG10(Q)             LN(Q)
 TOTAL BOT       0.110649D-20        -20.956053        -48.253094
 TOTAL V=0       0.119872D+13         12.078719         27.812278
 VIB (BOT)       0.120849D-32        -32.917756        -75.795935
 VIB (BOT)  1    0.307999D+00         -0.511451         -1.177660
 VIB (V=0)       0.130923D+01          0.117015          0.269438
 VIB (V=0)  1    0.108725D+01          0.036330          0.083652
 ELECTRONIC      0.100000D+01          0.000000          0.000000
 TRANSLATIONAL   0.220588D+08          7.343582         16.909224
 ROTATIONAL      0.415070D+05          4.618121         10.633617
 ***** Axes restored to original set *****
 -------------------------------------------------------------------
 Center     Atomic                   Forces (Hartrees/Bohr)
 Number     Number              X              Y              Z
 -------------------------------------------------------------------
    1          1          -0.000027260    0.000000000   -0.000110427
    2          6          -0.000106144    0.000000000    0.000131249
    3          1          -0.000062732    0.000000000   -0.000027818
    4          6          -0.000184938    0.000000000   -0.000275478
    5          1          -0.000026986    0.000000000    0.000102099
    6          6          -0.000255670    0.000000000    0.000385292
    7          7          -0.000035130    0.000000000    0.000144814
    8          1           0.000073878    0.000000000   -0.000032519
    9          7           0.000624982    0.000000000   -0.000317212
 -------------------------------------------------------------------
 Cartesian Forces:  Max     0.000624982 RMS     0.000182690

 GradGradGradGradGradGradGradGradGradGradGradGradGradGradGradGradGradGrad
 Berny optimization.
 Internal  Forces:  Max     0.000390857 RMS     0.000143504
 Search for a local minimum.
 Step number   1 out of a maximum of  48
 All quantities printed in internal units (Hartrees-Bohrs-Radians)
 Second derivative matrix not updated -- analytic derivatives used.
     Eigenvalues ---    0.00713   0.01138   0.01603   0.02785   0.05878
     Eigenvalues ---    0.06213   0.09464   0.10461   0.11237   0.12114
     Eigenvalues ---    0.22444   0.26988   0.35699   0.37430   0.38015
     Eigenvalues ---    0.38298   0.41137   0.43983   0.48303   0.50412
     Eigenvalues ---    0.579141000.000001000.000001000.000001000.00000
     Eigenvalues --- 1000.000001000.000001000.000001000.000001000.00000
     Eigenvalues --- 1000.000001000.000001000.000001000.000001000.00000
     Eigenvalues --- 1000.000001000.000001000.00000
 Angle between quadratic step and forces=  27.00 degrees.
 Linear search not attempted -- first point.
 Iteration  1 RMS(Cart)=  0.00054020 RMS(Int)=  0.00000012
 Iteration  2 RMS(Cart)=  0.00000012 RMS(Int)=  0.00000004
 Variable       Old X    -DE/DX   Delta X   Delta X   Delta X     New X
                                 (Linear)    (Quad)   (Total)
    R1        2.04279   0.00008   0.00000   0.00017   0.00017   2.04296
    R2        2.60809  -0.00020   0.00000  -0.00010  -0.00010   2.60799
    R3        2.56037  -0.00008   0.00000  -0.00029  -0.00029   2.56008
    R4        2.04186   0.00001   0.00000   0.00000   0.00000   2.04186
    R5        2.66545   0.00035   0.00000   0.00084   0.00084   2.66629
    R6        2.04565  -0.00002   0.00000  -0.00002  -0.00002   2.04563
    R7        2.51524  -0.00027   0.00000  -0.00039  -0.00039   2.51485
    R8        2.53711  -0.00028   0.00000  -0.00064  -0.00064   2.53647
    R9        1.90522  -0.00008   0.00000  -0.00011  -0.00011   1.90511
    A1        2.30543  -0.00001   0.00000  -0.00046  -0.00046   2.30497
    A2        2.12685   0.00015   0.00000   0.00078   0.00078   2.12763
    A3        1.85090  -0.00015   0.00000  -0.00032  -0.00032   1.85059
    A4        2.22166  -0.00001   0.00000  -0.00038  -0.00038   2.22128
    A5        1.82207  -0.00014   0.00000  -0.00038  -0.00038   1.82169
    A6        2.23945   0.00015   0.00000   0.00077   0.00077   2.24022
    A7        2.24232   0.00002   0.00000   0.00043   0.00043   2.24276
    A8        1.95594   0.00016   0.00000   0.00034   0.00034   1.95628
    A9        2.08492  -0.00018   0.00000  -0.00077  -0.00077   2.08414
   A10        1.81462  -0.00027   0.00000  -0.00058  -0.00058   1.81405
   A11        1.98123   0.00039   0.00000   0.00094   0.00094   1.98217
   A12        2.22970  -0.00016   0.00000  -0.00044  -0.00044   2.22927
   A13        2.07225  -0.00023   0.00000  -0.00050  -0.00050   2.07175
    D1        0.00000   0.00000   0.00000   0.00000   0.00000   0.00000
    D2        3.14159   0.00000   0.00000   0.00000   0.00000   3.14159
    D3        3.14159   0.00000   0.00000   0.00000   0.00000   3.14159
    D4        0.00000   0.00000   0.00000   0.00000   0.00000   0.00000
    D5        3.14159   0.00000   0.00000   0.00000   0.00000   3.14159
    D6        0.00000   0.00000   0.00000   0.00000   0.00000   0.00000
    D7        0.00000   0.00000   0.00000   0.00000   0.00000   0.00000
    D8        3.14159   0.00000   0.00000   0.00000   0.00000   3.14159
    D9        3.14159   0.00000   0.00000   0.00000   0.00000   3.14159
   D10        0.00000   0.00000   0.00000   0.00000   0.00000   0.00000
   D11        0.00000   0.00000   0.00000   0.00000   0.00000   0.00000
   D12        3.14159   0.00000   0.00000   0.00000   0.00000   3.14159
   D13        0.00000   0.00000   0.00000   0.00000   0.00000   0.00000
   D14        3.14159   0.00000   0.00000   0.00000   0.00000   3.14159
   D15        0.00000   0.00000   0.00000   0.00000   0.00000   0.00000
   D16        3.14159   0.00000   0.00000   0.00000   0.00000   3.14159
         Item               Value     Threshold  Converged?
 Maximum Force            0.000391     0.000450     YES
 RMS     Force            0.000144     0.000300     YES
 Maximum Displacement     0.001824     0.001800     NO
 RMS     Displacement     0.000540     0.001200     YES
 Predicted change in Energy=-9.456455D-07
 GradGradGradGradGradGradGradGradGradGradGradGradGradGradGradGradGradGrad

 1\1\GINC-QCHEM5\Freq\RB3PW91\6-31G(d)\C3H4N2\RDJ3\22-Feb-1999\0\\#N GE
 OM=ALLCHECK GUESS=TCHECK RB3PW91/6-31G(D) FREQ\\1H pyrazole C3H4N2 cas
 no=288131\\0,1\H,-1.8939932,0.,-1.1724309028\C,-0.9374008148,0.,-0.668
 9602258\H,0.6767333971,0.,-2.176898695\C,0.358270204,0.,-1.1443920096\
 H,2.238107886,0.,0.0915411153\C,1.1581409399,0.,0.0173755874\N,0.42572
 7601,0.,1.1287510087\H,-1.5914658353,0.,1.355159465\N,-0.840505347,0.,
 0.6824616921\\Version=x86-Linux-G98RevA.4\State=1-A'\HF=-226.1151951\R
 MSD=1.262e-09\RMSF=1.827e-04\Dipole=-0.8047923,0.,-0.4192013\DipoleDer
 iv=-0.0139101,0.0001116,-0.050478,0.0000674,0.1752834,0.0000351,-0.033
 9685,0.0000599,0.0732392,0.1468484,-0.0002077,-0.1118009,0.0000014,-0.
 0772591,-0.000022,-0.2876123,0.0002096,0.2071099,0.0921824,0.0000622,0
 .0304401,0.0002252,0.1615174,-0.0000123,0.0336818,-0.0002324,-0.035761
 7,-0.2576384,-0.0000424,-0.0031927,-0.0002651,-0.2120115,0.0000275,-0.
 051341,0.0001269,-0.0070065,-0.0671402,-0.0001031,-0.0105135,0.0001161
 ,0.1356324,0.0000053,-0.0279319,0.0000054,0.0784019,0.2399147,-0.00004
 02,0.1187693,-0.0000337,-0.0588449,-0.0000554,0.1930527,0.0003072,0.17
 70982,-0.0040019,0.0002591,-0.222818,-0.0002641,-0.2338372,-0.0000037,
 -0.0830145,-0.0001808,-0.5781627,0.19817,-0.0000642,-0.0373168,-0.0000
 235,0.3247064,0.000047,-0.025497,0.0000437,0.2172402,-0.3344244,0.0000
 248,0.2869104,0.0001763,-0.2151869,-0.0000214,0.2826305,-0.0003395,-0.
 1321584\Polar=49.065626,-0.0017634,17.2056664,-0.3025767,-0.0013232,44
 .8458742\PG=CS [SG(C3H4N2)]\NImag=0\\0.30786031,-0.00000074,0.02013391
 ,0.13632274,-0.00000137,0.12350226,-0.30215773,0.00000171,-0.11724817,
 0.86795001,0.00000415,-0.02409050,0.00000268,-0.00000465,0.11526023,-0
 .12665885,-0.00000077,-0.12117468,0.09547208,0.00000526,0.66204405,0.0
 0031983,0.00000047,-0.00076956,0.00192517,0.00000053,0.02619914,0.0771
 4041,0.00000090,-0.00258941,-0.00000015,-0.00000236,-0.00244096,0.0000
 1279,0.00000014,0.02170065,0.00045286,0.00000018,-0.00015313,-0.003098
 23,-0.00000437,0.00009924,-0.09461074,-0.00000417,0.35125704,-0.007223
 76,-0.00000043,0.00909428,-0.35292014,0.00000102,0.07737540,-0.0843865
 7,0.00000940,0.08805386,0.63370121,-0.00000123,0.00040881,0.00000005,0
 .00000236,-0.06108471,-0.00001453,-0.00000006,-0.02525554,0.00000426,-
 0.00001100,0.11334744,-0.01521261,-0.00000127,0.01306973,0.10458844,0.
 00000571,-0.14350119,0.08563522,0.00001146,-0.33774528,-0.11875034,-0.
 00001306,0.84105296,-0.00007037,0.00000257,0.00036755,-0.00101037,-0.0
 0000246,-0.00124346,-0.00003325,-0.00001161,-0.00058820,-0.00543466,0.
 00001195,0.00367968,0.37526524,0.00000029,0.00092175,0.00000044,-0.000
 00138,0.00446280,-0.00000026,0.00000045,-0.00183181,0.,-0.00000059,0.0
 0060526,-0.00000179,0.00000475,0.02447475,-0.00107280,-0.00000042,0.00
 114396,-0.00287423,0.00000142,-0.00603056,0.00085839,0.00000122,0.0001
 8724,-0.02219272,-0.00000162,0.00686486,0.02149546,0.00000012,0.056672
 49,-0.00478353,-0.00000506,0.00455263,-0.05302899,0.00000208,0.0006637
 6,0.01337870,0.00000174,0.01250668,-0.18316553,-0.00000124,-0.11134224
 ,-0.35412697,-0.00000569,-0.03279316,0.88998567,-0.00000262,0.00494834
 ,-0.00000222,0.00000546,0.01054650,0.00000082,-0.00000107,-0.00332559,
 0.00000376,0.00000386,-0.06394965,0.00000100,-0.00000221,-0.03008587,-
 0.00000016,0.00000245,0.13780069,0.00099265,0.00000315,-0.00247956,-0.
 07002678,-0.00000603,0.03606123,-0.01522581,-0.00001038,-0.00935282,-0
 .07650310,0.00001435,-0.23962905,-0.02503804,0.00000347,-0.06147896,-0
 .00886636,-0.00001102,0.62380906,0.00049100,0.00000128,0.00041390,-0.0
 5830894,-0.00000012,-0.05001707,-0.00214220,0.00000329,-0.00105898,0.0
 2745765,-0.00000239,0.03956596,-0.01356751,0.00000109,0.02872395,-0.18
 369261,-0.00000449,0.14787990,0.52017401,0.00000305,0.00671306,0.00000
 281,-0.00000357,0.01719848,-0.00000427,0.00000051,0.00669705,-0.000002
 18,-0.00000728,0.02005000,-0.00000311,0.00000247,-0.00790080,-0.000000
 11,0.00000530,-0.07233450,0.00000668,-0.00000015,0.10572971,0.00203639
 ,-0.00000291,-0.00572007,-0.01872548,0.00000373,-0.06694983,-0.0059381
 2,0.00000010,-0.00429730,-0.03327543,-0.00000173,-0.07669824,-0.000645
 26,-0.00000139,0.00647142,0.11118674,0.00000446,-0.31214140,-0.0480309
 8,0.00000134,0.57124679,-0.00020138,-0.00000168,0.00037405,0.01017321,
 0.00000145,-0.00417872,0.00075125,0.00000312,-0.00009021,0.00188665,-0
 .00000421,-0.00316440,-0.00043891,-0.00000033,0.00149893,-0.00771818,0
 .00000304,-0.00542793,-0.02209730,-0.00000165,0.02463118,0.29690877,0.
 00000091,-0.00142886,0.00000092,-0.00000380,-0.00841328,0.00000098,0.0
 0000089,0.00234770,-0.00000351,-0.00000244,0.00305296,0.00000003,-0.00
 000302,0.00226658,-0.00000052,0.00000169,0.00445328,0.00001139,0.00000
 600,-0.01280126,-0.00000589,-0.00000255,0.01240515,-0.00066685,0.00000
 226,0.00005386,0.02561401,-0.00000210,-0.00604349,0.00130808,-0.000002
 71,0.00020752,-0.00233520,0.00000365,-0.00718215,-0.00053767,0.0000005
 0,0.00101073,-0.00578973,-0.00000226,0.00076909,-0.01082728,0.00000025
 ,0.01657884,-0.20676438,0.00000188,0.25378003,0.00576564,0.00000186,-0
 .03310742,-0.11262223,-0.00000200,-0.01761229,-0.00695333,-0.00000463,
 -0.00156704,-0.02991484,0.00000583,0.01500028,-0.00058320,0.00000140,0
 .00635617,-0.11684857,-0.00000442,0.05221547,-0.26831410,0.00000131,-0
 .03123904,-0.27926411,0.00000231,0.19999901,0.80873473,-0.00000472,-0.
 00501709,-0.00000317,0.00000622,-0.05143855,0.,-0.00000185,0.00469792,
 0.00000603,0.00000747,0.01282544,0.00000104,-0.00000245,0.00708733,0.0
 0000007,-0.00000128,0.01194680,-0.00001162,-0.00000453,-0.06335174,0.0
 0000228,0.00000282,-0.00188228,-0.00000148,-0.00000168,0.08513216,0.00
 380645,0.00000115,-0.00824236,-0.01370164,-0.00000631,-0.35450478,0.00
 254339,-0.00000816,-0.00020249,0.07853325,0.00000862,-0.05623164,0.002
 50994,-0.00000110,-0.00484117,0.02988169,0.00000562,-0.03555759,-0.106
 64941,-0.00000141,-0.12849019,0.19312147,-0.00000528,-0.25917441,-0.19
 004513,0.00000687,0.84724460\\0.00002726,0.,0.00011043,0.00010614,0.,-
 0.00013125,0.00006273,0.,0.00002782,0.00018494,0.,0.00027548,0.0000269
 9,0.,-0.00010210,0.00025567,0.,-0.00038529,0.00003513,0.,-0.00014481,-
 0.00007388,0.,0.00003252,-0.00062498,0.,0.00031721\\\@

 CURIOUSER AND CURIOUSER

                  -- ALICE, IN WONDERLAND
 Job cpu time:  0 days  0 hours 33 minutes 36.0 seconds.
 File lengths (MBytes):  RWF=   16 Int=    0 D2E=    0 Chk=    3 Scr=    1
 Normal termination of Gaussian 98.
