 Gaussian 98, Revision A.7,
 Gaussian 98:  SGI64-G98RevA.7 11-Apr-1999

 ------------------------
 #B3PW91/cc-pVTZ opt freq
 ------------------------

 -------------------------------
 1H pyrazole C3H4N2 casno=288131
 -------------------------------
 Symbolic Z-matrix:
 Charge =  0 Multiplicity = 1

 SCF Done:  E(RB+HF-PW91) =  -226.137237192     A.U. after   13 cycles
 SCF Done:  E(RB+HF-PW91) =  -226.187875437     A.U. after   12 cycles
 SCF Done:  E(RB+HF-PW91) =  -226.196352975     A.U. after   11 cycles
 SCF Done:  E(RB+HF-PW91) =  -226.196488933     A.U. after    9 cycles
 SCF Done:  E(RB+HF-PW91) =  -226.196536557     A.U. after    9 cycles
 SCF Done:  E(RB+HF-PW91) =  -226.196538629     A.U. after    7 cycles
 Optimization completed.
    -- Stationary point found.
 Normal termination of Gaussian 98.

 --------------------------------------------------
 #N Geom=AllCheck Guess=TCheck RB3PW91/CC-pVTZ Freq
 --------------------------------------------------

 1H pyrazole C3H4N2 casno=288131
 -------------------------------
 Redundant internal coordinates taken from checkpointfile:
 /wrk/Gau-152108.chk
 Charge =  0 Multiplicity = 1

                         Standard orientation:
 ---------------------------------------------------------------------
 Center     Atomic     Atomic              Coordinates (Angstroms)
 Number     Number      Type              X           Y           Z
 ---------------------------------------------------------------------
    1          1             0        2.097393    0.725581    0.000000
    2          6             0        1.105690    0.304495    0.000000
    3          1             0        1.259384   -1.889941    0.000000
    4          6             0        0.659712   -0.995934    0.000000
    5          1             0       -1.479096   -1.674086    0.000000
    6          6             0       -0.742788   -0.885779    0.000000
    7          7             0       -1.138438    0.379743    0.000000
    8          1             0       -0.044299    2.083220    0.000000
    9          7             0        0.000000    1.080047    0.000000
 ---------------------------------------------------------------------

 SCF Done:  E(RB+HF-PW91) =  -226.196538629     A.U. after    1 cycles

  The electronic state is 1-A'.
 Alpha  occ. eigenvalues --  -14.38619 -14.32466 -10.20083 -10.17829 -10.15870
 Alpha  occ. eigenvalues --   -1.05852  -0.82456  -0.78718  -0.61745  -0.60222
 Alpha  occ. eigenvalues --   -0.55140  -0.44962  -0.44842  -0.43226  -0.40239
 Alpha  occ. eigenvalues --   -0.29575  -0.26715  -0.25722
 Alpha virt. eigenvalues --    0.01079   0.04455   0.05939   0.08330   0.09446
 Alpha virt. eigenvalues --    0.11315   0.18356   0.19431   0.20466   0.21345
 Alpha virt. eigenvalues --    0.28998   0.30462   0.32784   0.34541   0.35359

  Exact polarizability:  51.039   1.725  51.813   0.000  -0.003  26.724
 Approx polarizability:  82.848   1.462  85.109   0.000   0.000  39.764

                     1                      2                      3
                    A"                     A"                     A"
 Frequencies --   549.6349               642.0233               699.3956
 Red. masses --     1.6674                 2.4699                 2.8339
 Frc consts  --     0.2968                 0.5998                 0.8167
 IR Inten    --    51.8970                 0.2789                19.6225
 Raman Activ --     0.0000                 0.0000                 0.0000

                     4                      5                      6
                    A"                     A"                     A"
 Frequencies --   759.3635               851.6255               904.3942
 Red. masses --     1.2165                 1.2385                 1.3476
 Frc consts  --     0.4133                 0.5292                 0.6494
 IR Inten    --    89.0195                 8.6428                 4.2563
 Raman Activ --     0.0000                 0.0000                 0.0000

                     7                      8                      9
                    A'                     A'                     A'
 Frequencies --   921.9501               943.3824              1056.0461
 Red. masses --     5.5294                 3.7083                 1.5207
 Frc consts  --     2.7691                 1.9445                 0.9992
 IR Inten    --     9.6064                 5.2295                24.0556
 Raman Activ --     0.0000                 0.0000                 0.0000

                    10                     11                     12
                    A'                     A'                     A'
 Frequencies --  1059.2918              1151.4774              1194.5124
 Red. masses --     1.4858                 1.7602                 3.3050
 Frc consts  --     0.9823                 1.3751                 2.7785
 IR Inten    --    21.7212                18.0395                 1.0662
 Raman Activ --     0.0000                 0.0000                 0.0000

                    13                     14                     15
                    A'                     A'                     A'
 Frequencies --  1286.6820              1392.6443              1435.4249
 Red. masses --     1.7397                 2.6496                 3.9263
 Frc consts  --     1.6969                 3.0277                 4.7664
 IR Inten    --     3.1330                 3.1925                13.3561
 Raman Activ --     0.0000                 0.0000                 0.0000

                    16                     17                     18
                    A'                     A'                     A'
 Frequencies --  1490.9704              1573.8163              3243.5251
 Red. masses --     2.7307                 3.0522                 1.0934
 Frc consts  --     3.5766                 4.4542                 6.7776
 IR Inten    --     5.4149                 5.8403                 3.5083
 Raman Activ --     0.0000                 0.0000                 0.0000

                    19                     20                     21
                    A'                     A'                     A'
 Frequencies --  3258.2039              3277.3928              3680.8980
 Red. masses --     1.0938                 1.1071                 1.0816
 Frc consts  --     6.8415                 7.0064                 8.6345
 IR Inten    --     1.3581                 0.5072                81.0412
 Raman Activ --     0.0000                 0.0000                 0.0000

 - Thermochemistry -
 -------------------
 Temperature   298.150 Kelvin.  Pressure   1.00000 Atm.
 Atom  1 has atomic number  1 and mass   1.00783

 Molecular mass:    68.03745 amu.
 Principal axes and moments of inertia in atomic units:
                           1         2         3
     EIGENVALUES --   185.32898 189.48014 374.80912
           X            0.90647   0.42228   0.00000
           Y           -0.42228   0.90647   0.00000
           Z            0.00000   0.00000   1.00000
 THIS MOLECULE IS AN ASYMMETRIC TOP.
 ROTATIONAL SYMMETRY NUMBER  1.
 ROTATIONAL TEMPERATURES (KELVIN)      0.46735     0.45711     0.23109
 ROTATIONAL CONSTANTS (GHZ)            9.73804     9.52470     4.81509
 Zero-point vibrational energy     187650.2 (Joules/Mol)
                                   44.84947 (Kcal/Mol)
 WARNING-- EXPLICIT CONSIDERATION OF   1 DEGREES OF FREEDOM AS
           VIBRATIONS MAY CAUSE SIGNIFICANT ERROR
 VIBRATIONAL TEMPERATURES:    790.80   923.72  1006.27  1092.55  1225.29
          (KELVIN)           1301.21  1326.47  1357.31  1519.41  1524.08
                             1656.71  1718.63  1851.24  2003.69  2065.24
                             2145.16  2264.36  4666.68  4687.80  4715.41
                             5295.96

 Zero-point correction=                           0.071472 (Hartree/Particle)
 Thermal correction to Energy=                    0.075181
 Thermal correction to Enthalpy=                  0.076125
 Thermal correction to Gibbs Free Energy=         0.045234
 Sum of electronic and zero-point Energies=           -226.125066
 Sum of electronic and thermal Energies=              -226.121358
 Sum of electronic and thermal Enthalpies=            -226.120413
 Sum of electronic and thermal Free Energies=         -226.151304

                     E (Thermal)             CV                S
                      KCAL/MOL        CAL/MOL-KELVIN    CAL/MOL-KELVIN
 TOTAL                   47.177             13.150             65.015
 ELECTRONIC               0.000              0.000              0.000
 TRANSLATIONAL            0.889              2.981             38.570
 ROTATIONAL               0.889              2.981             24.091
 VIBRATIONAL             45.399              7.189              2.354
 VIBRATION  1             0.905              1.140              0.545
                       Q            LOG10(Q)             LN(Q)
 TOTAL BOT       0.156225D-20        -20.806250        -47.908162
 TOTAL V=0       0.117070D+13         12.068446         27.788623
 VIB (BOT)       0.172448D-32        -32.763341        -75.440380
 VIB (BOT)  1    0.285623D+00         -0.544206         -1.253081
 VIB (V=0)       0.129228D+01          0.111355          0.256405
 VIB (V=0)  1    0.107583D+01          0.031744          0.073093
 ELECTRONIC      0.100000D+01          0.000000          0.000000
 TRANSLATIONAL   0.220588D+08          7.343582         16.909224
 ROTATIONAL      0.410684D+05          4.613508         10.622995
 ***** Axes restored to original set *****
 -------------------------------------------------------------------
 Center     Atomic                   Forces (Hartrees/Bohr)
 Number     Number              X              Y              Z
 -------------------------------------------------------------------
    1          1           0.000029398    0.000000000   -0.000071647
    2          6          -0.000174584    0.000000000    0.000553727
    3          1           0.000039980    0.000000000    0.000016505
    4          6           0.000197102    0.000000000   -0.000229925
    5          1           0.000047137    0.000000000   -0.000008398
    6          6           0.000065399    0.000000000    0.000186913
    7          7           0.000036912    0.000000000   -0.000238400
    8          1          -0.000000821    0.000000000    0.000053923
    9          7          -0.000240522    0.000000000   -0.000262697
 -------------------------------------------------------------------
 Cartesian Forces:  Max     0.000553727 RMS     0.000157074

 GradGradGradGradGradGradGradGradGradGradGradGradGradGradGradGradGradGrad
 Berny optimization.
 Internal  Forces:  Max     0.000322542 RMS     0.000089359
 Search for a local minimum.
 Step number   1 out of a maximum of  48
 All quantities printed in internal units (Hartrees-Bohrs-Radians)
 Second derivative matrix not updated -- analytic derivatives used.
     Eigenvalues ---    0.00780   0.01178   0.01619   0.02773   0.05956
     Eigenvalues ---    0.06250   0.09221   0.10263   0.10901   0.11709
     Eigenvalues ---    0.22149   0.26386   0.34800   0.36783   0.37373
     Eigenvalues ---    0.37643   0.40314   0.43180   0.48053   0.49450
     Eigenvalues ---    0.574031000.000001000.000001000.000001000.00000
     Eigenvalues --- 1000.000001000.000001000.000001000.000001000.00000
     Eigenvalues --- 1000.000001000.000001000.000001000.000001000.00000
     Eigenvalues --- 1000.000001000.000001000.00000
 Angle between quadratic step and forces=  36.98 degrees.
 Linear search not attempted -- first point.
 Iteration  1 RMS(Cart)=  0.00026928 RMS(Int)=  0.00000012
 Iteration  2 RMS(Cart)=  0.00000012 RMS(Int)=  0.00000001
 Variable       Old X    -DE/DX   Delta X   Delta X   Delta X     New X
                                 (Linear)    (Quad)   (Total)
    R1        2.03599   0.00001   0.00000   0.00004   0.00004   2.03603
    R2        2.59795   0.00032   0.00000   0.00066   0.00066   2.59861
    R3        2.55220  -0.00029   0.00000  -0.00078  -0.00078   2.55142
    R4        2.03429   0.00000   0.00000  -0.00002  -0.00002   2.03427
    R5        2.65850   0.00002   0.00000   0.00017   0.00017   2.65867
    R6        2.03843   0.00005   0.00000   0.00012   0.00012   2.03856
    R7        2.50564  -0.00009   0.00000  -0.00027  -0.00027   2.50537
    R8        2.52578   0.00008   0.00000   0.00026   0.00026   2.52605
    R9        1.89757   0.00004   0.00000   0.00005   0.00005   1.89763
    A1        2.30271  -0.00010   0.00000  -0.00104  -0.00104   2.30167
    A2        2.12837   0.00003   0.00000   0.00071   0.00071   2.12908
    A3        1.85210   0.00007   0.00000   0.00033   0.00033   1.85243
    A4        2.22038   0.00006   0.00000   0.00031   0.00031   2.22069
    A5        1.82279  -0.00006   0.00000  -0.00028  -0.00028   1.82251
    A6        2.24001  -0.00001   0.00000  -0.00003  -0.00003   2.23999
    A7        2.24372   0.00003   0.00000  -0.00007  -0.00007   2.24365
    A8        1.95219  -0.00011   0.00000  -0.00017  -0.00017   1.95202
    A9        2.08728   0.00008   0.00000   0.00024   0.00024   2.08752
   A10        1.81927   0.00019   0.00000   0.00040   0.00040   1.81967
   A11        1.97843  -0.00010   0.00000  -0.00029  -0.00029   1.97815
   A12        2.22660   0.00010   0.00000   0.00070   0.00070   2.22730
   A13        2.07815   0.00000   0.00000  -0.00041  -0.00041   2.07773
    D1        0.00000   0.00000   0.00000   0.00000   0.00000   0.00000
    D2        3.14159   0.00000   0.00000   0.00000   0.00000   3.14159
    D3        3.14159   0.00000   0.00000   0.00000   0.00000   3.14159
    D4        0.00000   0.00000   0.00000   0.00000   0.00000   0.00000
    D5        3.14159   0.00000   0.00000   0.00000   0.00000   3.14159
    D6        0.00000   0.00000   0.00000   0.00000   0.00000   0.00000
    D7        0.00000   0.00000   0.00000   0.00000   0.00000   0.00000
    D8        3.14159   0.00000   0.00000   0.00000   0.00000   3.14159
    D9        3.14159   0.00000   0.00000   0.00000   0.00000   3.14159
   D10        0.00000   0.00000   0.00000   0.00000   0.00000   0.00000
   D11        0.00000   0.00000   0.00000   0.00000   0.00000   0.00000
   D12        3.14159   0.00000   0.00000   0.00000   0.00000   3.14159
   D13        0.00000   0.00000   0.00000   0.00000   0.00000   0.00000
   D14        3.14159   0.00000   0.00000   0.00000   0.00000   3.14159
   D15        0.00000   0.00000   0.00000   0.00000   0.00000   0.00000
   D16        3.14159   0.00000   0.00000   0.00000   0.00000   3.14159
         Item               Value     Threshold  Converged?
 Maximum Force            0.000323     0.000450     YES
 RMS     Force            0.000089     0.000300     YES
 Maximum Displacement     0.000851     0.001800     YES
 RMS     Displacement     0.000269     0.001200     YES
 Predicted change in Energy=-4.461050D-07
 Optimization completed.
    -- Stationary point found.
                         ----------------------------
                         !   Optimized Parameters   !
                         ! (Angstroms and Degrees)  !
 ------------------------                            -------------------------
 ! Name  Definition              Value          Derivative Info.             !
 -----------------------------------------------------------------------------
 ! R1    R(1,2)                  1.0774         -DE/DX =    0.               !
 ! R2    R(2,4)                  1.3748         -DE/DX =    0.0003           !
 ! R3    R(2,9)                  1.3506         -DE/DX =   -0.0003           !
 ! R4    R(3,4)                  1.0765         -DE/DX =    0.               !
 ! R5    R(4,6)                  1.4068         -DE/DX =    0.               !
 ! R6    R(5,6)                  1.0787         -DE/DX =    0.               !
 ! R7    R(6,7)                  1.3259         -DE/DX =   -0.0001           !
 ! R8    R(7,9)                  1.3366         -DE/DX =    0.0001           !
 ! R9    R(8,9)                  1.0042         -DE/DX =    0.               !
 ! A1    A(1,2,4)              131.9358         -DE/DX =   -0.0001           !
 ! A2    A(1,2,9)              121.9469         -DE/DX =    0.               !
 ! A3    A(4,2,9)              106.1173         -DE/DX =    0.0001           !
 ! A4    A(2,4,3)              127.2182         -DE/DX =    0.0001           !
 ! A5    A(2,4,6)              104.4384         -DE/DX =   -0.0001           !
 ! A6    A(3,4,6)              128.3434         -DE/DX =    0.               !
 ! A7    A(4,6,5)              128.5557         -DE/DX =    0.               !
 ! A8    A(4,6,7)              111.8521         -DE/DX =   -0.0001           !
 ! A9    A(5,6,7)              119.5922         -DE/DX =    0.0001           !
 ! A10   A(6,7,9)              104.2363         -DE/DX =    0.0002           !
 ! A11   A(2,9,7)              113.356          -DE/DX =   -0.0001           !
 ! A12   A(2,9,8)              127.575          -DE/DX =    0.0001           !
 ! A13   A(7,9,8)              119.069          -DE/DX =    0.               !
 ! D1    D(1,2,4,3)              0.             -DE/DX =    0.               !
 ! D2    D(1,2,4,6)            180.             -DE/DX =    0.               !
 ! D3    D(9,2,4,3)            180.             -DE/DX =    0.               !
 ! D4    D(9,2,4,6)              0.             -DE/DX =    0.               !
 ! D5    D(1,2,9,7)            180.             -DE/DX =    0.               !
 ! D6    D(1,2,9,8)              0.             -DE/DX =    0.               !
 ! D7    D(4,2,9,7)              0.             -DE/DX =    0.               !
 ! D8    D(4,2,9,8)            180.             -DE/DX =    0.               !
 ! D9    D(2,4,6,5)            180.             -DE/DX =    0.               !
 ! D10   D(2,4,6,7)              0.             -DE/DX =    0.               !
 ! D11   D(3,4,6,5)              0.             -DE/DX =    0.               !
 ! D12   D(3,4,6,7)            180.             -DE/DX =    0.               !
 ! D13   D(4,6,7,9)              0.             -DE/DX =    0.               !
 ! D14   D(5,6,7,9)            180.             -DE/DX =    0.               !
 ! D15   D(6,7,9,2)              0.             -DE/DX =    0.               !
 ! D16   D(6,7,9,8)            180.             -DE/DX =    0.               !
 -----------------------------------------------------------------------------
 GradGradGradGradGradGradGradGradGradGradGradGradGradGradGradGradGradGrad

 1\1\ NATIONAL INSTITUTE OF STANDARDS AND TECHNOLOGY-NEVA\Freq\RB3PW91\
 CC-pVTZ\C3H4N2\RDJ3\08-May-2001\0\\#N GEOM=ALLCHECK GUESS=TCHECK RB3PW
 91/CC-PVTZ FREQ\\1H pyrazole C3H4N2 casno=288131\\0,1\H,-1.8862664166,
 0.,-1.1694113868\C,-0.933865915,0.,-0.6657048573\H,0.6716638604,0.,-2.
 1695144116\C,0.3564298778,0.,-1.1402022219\H,2.2320298436,0.,0.0912650
 225\C,1.1558699748,0.,0.017396661\N,0.4236776217,0.,1.122828542\H,-1.5
 882680615,0.,1.348767164\N,-0.8379294577,0.,0.6814509038\\Version=SGI6
 4-G98RevA.7\State=1-A'\HF=-226.1965386\RMSD=1.919e-09\RMSF=1.571e-04\D
 ipole=-0.7897819,0.,-0.4066671\DipoleDeriv=-0.0038066,0.0000144,-0.044
 1184,0.0000059,0.1854702,0.0000006,-0.0334357,0.0000119,0.0726748,0.12
 93878,-0.0000426,-0.1429251,-0.0000002,-0.1042847,0.0000081,-0.2883006
 ,0.0000049,0.2146015,0.0946982,0.0000281,0.0267632,0.0000098,0.1723675
 ,-0.0000023,0.0320376,-0.0000737,-0.0301806,-0.2407328,-0.0000842,0.01
 24894,-0.0000213,-0.2329472,0.0000124,-0.046773,-0.000001,-0.0308777,-
 0.0445288,0.0000094,-0.0036552,0.0000084,0.1484486,0.0000006,-0.028074
 2,-0.0000119,0.0821197,0.2073855,0.0000303,0.1224597,-0.0000205,-0.077
 1166,0.0000037,0.181967,0.0001363,0.1893172,-0.0118247,0.0000543,-0.21
 24687,0.0000235,-0.2358322,-0.0000203,-0.09851,0.0000168,-0.5848801,0.
 2044911,-0.0000319,-0.0558325,0.0000098,0.2934359,0.0000033,-0.038126,
 0.0000312,0.2203301,-0.3350664,0.0000222,0.2972877,-0.0000153,-0.14954
 12,-0.0000062,0.3192156,-0.0001145,-0.1331027\Polar=53.1935423,0.00213
 14,26.7239389,-0.0269845,-0.0017024,49.658193\PG=CS [SG(C3H4N2)]\NImag
 =0\\0.30194880,-0.00000028,0.02076835,0.13428262,-0.00000014,0.1221958
 5,-0.29674566,0.00000054,-0.11559046,0.85603243,-0.00000032,-0.0261074
 6,-0.00000014,-0.00000046,0.12257083,-0.12474591,-0.00000038,-0.120263
 29,0.09830239,0.00000069,0.64741029,0.00032985,-0.00000020,-0.00086200
 ,0.00191384,-0.00000001,0.02579116,0.07550412,0.00000004,-0.00281918,0
 .00000003,-0.00000019,-0.00164788,0.00000047,0.00000004,0.02196077,0.0
 0046570,0.00000067,-0.00017177,-0.00324323,-0.00000013,-0.00009839,-0.
 09275953,-0.00000025,0.34617236,-0.00691897,0.00000019,0.00917202,-0.3
 4363116,0.00000096,0.07366059,-0.08273636,0.00000018,0.08640716,0.6186
 9275,-0.00000002,0.00150764,-0.00000004,0.00000074,-0.06508473,-0.0000
 0042,0.00000015,-0.02637519,-0.00000011,-0.00000162,0.11799176,-0.0150
 6960,-0.00000064,0.01269301,0.10185417,-0.00000019,-0.14061461,0.08388
 875,0.00000023,-0.33342617,-0.11994299,-0.00000072,0.82957219,-0.00018
 245,0.00000041,0.00025701,-0.00074882,0.00000002,-0.00124816,-0.000090
 03,-0.00000041,-0.00043677,-0.00494606,0.00000070,0.00378354,0.3688798
 6,-0.00000032,0.00084262,-0.00000016,0.00000045,0.00446518,-0.00000024
 ,-0.00000020,-0.00190890,0.00000063,0.00000032,0.00114706,-0.00000070,
 0.00000035,0.02474547,-0.00101706,0.00000001,0.00106214,-0.00301896,0.
 00000005,-0.00566486,0.00089292,0.00000003,0.00016597,-0.02160576,-0.0
 0000008,0.00664152,0.02078240,0.,0.05542066,-0.00454933,-0.00000053,0.
 00455912,-0.05623309,0.00000022,-0.00019559,0.01303604,0.00000026,0.01
 223728,-0.17953913,-0.00000035,-0.10679546,-0.34849731,-0.00000047,-0.
 03193903,0.88268064,-0.00000004,0.00485321,-0.00000004,0.00000002,0.01
 115502,-0.00000060,-0.00000005,-0.00268236,0.00000042,-0.00000006,-0.0
 6664813,-0.00000081,0.00000089,-0.03115388,-0.00000002,-0.00000029,0.1
 4140181,0.00085811,-0.00000011,-0.00200398,-0.06975422,-0.00000080,0.0
 3476609,-0.01478636,-0.00000009,-0.00888408,-0.07188633,0.00000201,-0.
 23069320,-0.02451247,-0.00000010,-0.06008606,-0.00996140,0.00000003,0.
 60343087,0.00066974,-0.00000042,0.00062243,-0.05877119,-0.00000015,-0.
 05138365,-0.00186231,0.00000047,-0.00112198,0.02783755,-0.00000002,0.0
 3951638,-0.01390839,-0.00000034,0.02805408,-0.17976782,-0.00000117,0.1
 4094909,0.50508174,0.00000080,0.00647515,0.00000046,-0.00000184,0.0184
 7468,0.00000151,0.00000033,0.00638642,-0.00000171,0.00000115,0.0206865
 8,0.00000326,-0.00000235,-0.00745578,0.00000008,0.00000156,-0.07400000
 ,-0.00000204,0.00000185,0.10736764,0.00225665,-0.00000015,-0.00568409,
 -0.02088197,0.00000069,-0.06829497,-0.00602651,0.00000017,-0.00405216,
 -0.03315951,-0.00000042,-0.07884471,-0.00084286,-0.00000006,0.00617064
 ,0.10824675,-0.00000028,-0.30332314,-0.04474545,0.00000078,0.56451962,
 -0.00020897,0.00000007,0.00042010,0.00987754,0.00000020,-0.00418970,0.
 00068334,-0.00000002,-0.00006072,0.00213816,-0.00000048,-0.00330737,-0
 .00038433,0.00000012,0.00140026,-0.00734732,0.00000011,-0.00558426,-0.
 02220270,0.00000024,0.02435257,0.29722084,-0.00000006,-0.00164390,-0.0
 0000002,-0.00000043,-0.00728104,0.00000078,0.00000008,0.00214556,-0.00
 000046,0.00000055,0.00314120,0.00000050,-0.00000068,0.00214832,0.00000
 002,0.00000058,0.00444922,-0.00000050,0.00000062,-0.01212011,0.0000005
 3,0.00000003,0.01287923,-0.00068344,-0.00000013,0.00021967,0.02524240,
 -0.00000018,-0.00614714,0.00121023,0.00000002,0.00015923,-0.00230746,0
 .00000036,-0.00685689,-0.00048663,-0.00000018,0.00092411,-0.00583224,-
 0.00000013,0.00091865,-0.01032930,0.00000004,0.01593859,-0.20673399,0.
 00000004,0.24996699,0.00565714,0.00000021,-0.03286076,-0.11169423,-0.0
 0000047,-0.01599109,-0.00677843,-0.00000037,-0.00148802,-0.03089674,0.
 00000090,0.01607276,-0.00012253,0.00000008,0.00645116,-0.11978271,0.00
 000059,0.05467800,-0.25707645,-0.00000172,-0.02919990,-0.27977656,-0.0
 0000070,0.19992041,0.80047054,0.00000019,-0.00387640,0.00000006,0.0000
 0117,-0.05654459,-0.00000183,-0.00000015,0.00494080,0.00000096,-0.0000
 0164,0.01363381,-0.00000095,0.00000106,0.00716994,-0.00000010,-0.00000
 099,0.01262509,0.00000158,-0.00000084,-0.06581458,-0.00000127,-0.00000
 028,-0.00371846,0.00000014,0.00000146,0.09158435,0.00365302,0.00000087
 ,-0.00804756,-0.01291067,0.00000002,-0.34109293,0.00265135,-0.00000061
 ,0.00013492,0.07966257,-0.00000059,-0.05847128,0.00270393,0.00000079,-
 0.00463413,0.02968067,0.00000141,-0.03412487,-0.10156162,-0.00000239,-
 0.12643000,0.19370310,-0.00000090,-0.25512323,-0.19758246,0.00000142,0
 .82778905\\-0.00002940,0.,0.00007165,0.00017458,0.,-0.00055373,-0.0000
 3998,0.,-0.00001651,-0.00019710,0.,0.00022993,-0.00004714,0.,0.0000084
 0,-0.00006540,0.,-0.00018691,-0.00003691,0.,0.00023840,0.00000082,0.,-
 0.00005392,0.00024052,0.,0.00026270\\\@

 WE ARE PERHAPS NOT FAR REMOVED FROM THE TIME WHEN WE SHALL BE ABLE TO SUBMIT
 THE BULK OF CHEMICAL PHENOMENA TO CALCULATION.

            -- JOSEPH LOUIS GAY-LUSSAC
               MEMOIRES DE LA SOCIETE D'ARCUEIL, 2, 207 (1808)
 Job cpu time:  0 days  3 hours 54 minutes  8.2 seconds.
 File lengths (MBytes):  RWF=   47 Int=    0 D2E=    0 Chk=    6 Scr=    1
 Normal termination of Gaussian 98.
