 Gaussian 98, Revision A.6,
 Gaussian 98:  IBM-RS6000-G98RevA.6 19-Oct-1998

 ----------------------
 #B3PW91/3-21G opt freq
 ----------------------

 -------------------------------
 1H pyrazole C3H4N2 casno=288131
 -------------------------------
 Symbolic Z-matrix:
 Charge =  0 Multiplicity = 1

 SCF Done:  E(RB+HF-PW91) =  -224.778850381     A.U. after   14 cycles
 SCF Done:  E(RB+HF-PW91) =  -224.841836392     A.U. after   14 cycles
 SCF Done:  E(RB+HF-PW91) =  -224.857494814     A.U. after   14 cycles
 SCF Done:  E(RB+HF-PW91) =  -224.857994946     A.U. after   10 cycles
 SCF Done:  E(RB+HF-PW91) =  -224.858226206     A.U. after   11 cycles
 SCF Done:  E(RB+HF-PW91) =  -224.858243468     A.U. after    9 cycles
 SCF Done:  E(RB+HF-PW91) =  -224.858248056     A.U. after    9 cycles
 Optimization completed.
    -- Stationary point found.
 Normal termination of Gaussian 98.

 ------------------------------------------------
 #N Geom=AllCheck Guess=TCheck RB3PW91/3-21G Freq
 ------------------------------------------------

 1H pyrazole C3H4N2 casno=288131
 -------------------------------
 Redundant internal coordinates taken from checkpointfile:
 /wrk/rdj3/Gau-27338.chk
 Charge =  0 Multiplicity = 1

                         Standard orientation:
 ---------------------------------------------------------------------
 Center     Atomic     Atomic              Coordinates (Angstroms)
 Number     Number      Type              X           Y           Z
 ---------------------------------------------------------------------
    1          1             0        2.116515    0.725919    0.000000
    2          6             0        1.119023    0.318916    0.000000
    3          1             0        1.284769   -1.881124    0.000000
    4          6             0        0.678104   -0.992239    0.000000
    5          1             0       -1.447250   -1.721745    0.000000
    6          6             0       -0.737160   -0.911356    0.000000
    7          7             0       -1.178689    0.361400    0.000000
    8          1             0       -0.063016    2.113363    0.000000
    9          7             0        0.000000    1.105981    0.000000
 ---------------------------------------------------------------------

 SCF Done:  E(RB+HF-PW91) =  -224.858248056     A.U. after    1 cycles

  The electronic state is 1-A'.
 Alpha  occ. eigenvalues --  -14.32258 -14.26265 -10.15786 -10.13260 -10.11103
 Alpha  occ. eigenvalues --   -1.04879  -0.82900  -0.78338  -0.61857  -0.59663
 Alpha  occ. eigenvalues --   -0.55257  -0.45129  -0.43332  -0.43162  -0.40791
 Alpha  occ. eigenvalues --   -0.27733  -0.26348  -0.24805
 Alpha virt. eigenvalues --    0.01850   0.07725   0.10778   0.14987   0.18132
 Alpha virt. eigenvalues --    0.19589   0.22274   0.24686   0.32790   0.43612
 Alpha virt. eigenvalues --    0.46256   0.68785   0.72769   0.73920   0.75193

  Exact polarizability:  42.555   2.156  44.947   0.001   0.000  12.262
 Approx polarizability:  74.095   0.643  76.015   0.000   0.000  15.166

                     1                      2                      3
                    A"                     A"                     A"
 Frequencies --   604.2225               657.9450               685.6557
 Red. masses --     2.2696                 1.8830                 2.2601
 Frc consts  --     0.4882                 0.4803                 0.6260
 IR Inten    --    84.7584                 5.6263                47.5778
 Raman Activ --     0.0000                 0.0000                 0.0000

                     4                      5                      6
                    A"                     A"                     A'
 Frequencies --   788.7264               886.4325               934.6905
 Red. masses --     1.2266                 1.2510                 5.1961
 Frc consts  --     0.4496                 0.5791                 2.6746
 IR Inten    --    93.2653                14.5551                20.4448
 Raman Activ --     0.0000                 0.0000                 0.0000

                     7                      8                      9
                    A"                     A'                     A'
 Frequencies --   949.9227               954.4861               995.0229
 Red. masses --     1.4173                 5.3661                 2.6930
 Frc consts  --     0.7535                 2.8804                 1.5709
 IR Inten    --     0.6186                 3.6906                15.2663
 Raman Activ --     0.0000                 0.0000                 0.0000

                    10                     11                     12
                    A'                     A'                     A'
 Frequencies --  1072.5897              1135.6209              1156.1121
 Red. masses --     1.5678                 2.1686                 1.7908
 Frc consts  --     1.0627                 1.6477                 1.4103
 IR Inten    --     6.3896                19.7249                 4.6167
 Raman Activ --     0.0000                 0.0000                 0.0000

                    13                     14                     15
                    A'                     A'                     A'
 Frequencies --  1255.3149              1360.4549              1404.4635
 Red. masses --     2.6233                 1.9897                 2.1314
 Frc consts  --     2.4356                 2.1698                 2.4771
 IR Inten    --     2.0632                 3.4310                 8.5134
 Raman Activ --     0.0000                 0.0000                 0.0000

                    16                     17                     18
                    A'                     A'                     A'
 Frequencies --  1447.4897              1543.4629              3291.4616
 Red. masses --     2.3892                 2.6587                 1.0916
 Frc consts  --     2.9494                 3.7317                 6.9678
 IR Inten    --    11.3526                14.9379                 2.3252
 Raman Activ --     0.0000                 0.0000                 0.0000

                    19                     20                     21
                    A'                     A'                     A'
 Frequencies --  3297.4300              3323.6161              3647.5552
 Red. masses --     1.0954                 1.1062                 1.0826
 Frc consts  --     7.0176                 7.1994                 8.4863
 IR Inten    --     1.1462                 0.1892                94.4955
 Raman Activ --     0.0000                 0.0000                 0.0000

 - Thermochemistry -
 -------------------
 Temperature   298.150 Kelvin.  Pressure   1.00000 Atm.
 Atom  1 has atomic number  1 and mass   1.00783

 Molecular mass:    68.03745 amu.
 Principal axes and moments of inertia in atomic units:
                           1         2         3
     EIGENVALUES --   191.08714 195.65209 386.73923
           X            0.98936   0.14547   0.00000
           Y           -0.14547   0.98936   0.00000
           Z            0.00000   0.00000   1.00000
 THIS MOLECULE IS AN ASYMMETRIC TOP.
 ROTATIONAL SYMMETRY NUMBER  1.
 ROTATIONAL TEMPERATURES (KELVIN)      0.45327     0.44269     0.22396
 ROTATIONAL CONSTANTS (GHZ)            9.44460     9.22424     4.66656
 Zero-point vibrational energy     187769.9 (Joules/Mol)
                                   44.87809 (Kcal/Mol)
 WARNING-- EXPLICIT CONSIDERATION OF   1 DEGREES OF FREEDOM AS
           VIBRATIONS MAY CAUSE SIGNIFICANT ERROR
 VIBRATIONAL TEMPERATURES:    869.34   946.63   986.50  1134.79  1275.37
          (KELVIN)           1344.80  1366.72  1373.28  1431.61  1543.21
                             1633.90  1663.38  1806.11  1957.38  2020.70
                             2082.60  2220.69  4735.65  4744.24  4781.91
                             5247.99

 Zero-point correction=                           0.071518 (Hartree/Particle)
 Thermal correction to Energy=                    0.075178
 Thermal correction to Enthalpy=                  0.076123
 Thermal correction to Gibbs Free Energy=         0.045259
 Sum of electronic and zero-point Energies=           -224.786730
 Sum of electronic and thermal Energies=              -224.783070
 Sum of electronic and thermal Enthalpies=            -224.782125
 Sum of electronic and thermal Free Energies=         -224.812989

                     E (Thermal)             CV                S
                      KCAL/MOL        CAL/MOL-KELVIN    CAL/MOL-KELVIN
 TOTAL                   47.175             12.985             64.958
 ELECTRONIC               0.000              0.000              0.000
 TRANSLATIONAL            0.889              2.981             38.570
 ROTATIONAL               0.889              2.981             24.184
 VIBRATIONAL             45.398              7.024              2.203
 VIBRATION  1             0.963              1.023              0.442
                       Q            LOG10(Q)             LN(Q)
 TOTAL BOT       0.152216D-20        -20.817540        -47.934157
 TOTAL V=0       0.119711D+13         12.078135         27.810934
 VIB (BOT)       0.160310D-32        -32.795039        -75.513368
 VIB (BOT)  1    0.246055D+00         -0.608968         -1.402200
 VIB (V=0)       0.126077D+01          0.100636          0.231723
 VIB (V=0)  1    0.105726D+01          0.024183          0.055684
 ELECTRONIC      0.100000D+01          0.000000          0.000000
 TRANSLATIONAL   0.220588D+08          7.343582         16.909224
 ROTATIONAL      0.430444D+05          4.633916         10.669987
 ***** Axes restored to original set *****
 -------------------------------------------------------------------
 Center     Atomic                   Forces (Hartrees/Bohr)
 Number     Number              X              Y              Z
 -------------------------------------------------------------------
    1          1           0.000061673    0.000000000   -0.000068346
    2          6          -0.000041218    0.000000000    0.000638224
    3          1          -0.000032729    0.000000000   -0.000031272
    4          6           0.000339126    0.000000000   -0.000334039
    5          1          -0.000006126    0.000000000   -0.000030492
    6          6          -0.000205446    0.000000000   -0.000018564
    7          7          -0.000204171    0.000000000    0.000086201
    8          1          -0.000029890    0.000000000    0.000027684
    9          7           0.000118781    0.000000000   -0.000269396
 -------------------------------------------------------------------
 Cartesian Forces:  Max     0.000638224 RMS     0.000175026

 GradGradGradGradGradGradGradGradGradGradGradGradGradGradGradGradGradGrad
 Berny optimization.
 Internal  Forces:  Max     0.000281320 RMS     0.000094878
 Search for a local minimum.
 Step number   1 out of a maximum of  48
 All quantities printed in internal units (Hartrees-Bohrs-Radians)
 Second derivative matrix not updated -- analytic derivatives used.
     Eigenvalues ---    0.00938   0.01354   0.01794   0.02928   0.06096
     Eigenvalues ---    0.06547   0.09766   0.10732   0.10996   0.11822
     Eigenvalues ---    0.20859   0.25313   0.31340   0.35712   0.38130
     Eigenvalues ---    0.38452   0.38847   0.42051   0.47230   0.48292
     Eigenvalues ---    0.549641000.000001000.000001000.000001000.00000
     Eigenvalues --- 1000.000001000.000001000.000001000.000001000.00000
     Eigenvalues --- 1000.000001000.000001000.000001000.000001000.00000
     Eigenvalues --- 1000.000001000.000001000.00000
 Angle between quadratic step and forces=  28.57 degrees.
 Linear search not attempted -- first point.
 Iteration  1 RMS(Cart)=  0.00035282 RMS(Int)=  0.00000014
 Iteration  2 RMS(Cart)=  0.00000016 RMS(Int)=  0.00000003
 Variable       Old X    -DE/DX   Delta X   Delta X   Delta X     New X
                                 (Linear)    (Quad)   (Total)
    R1        2.03586  -0.00002   0.00000  -0.00002  -0.00002   2.03584
    R2        2.61407   0.00017   0.00000   0.00062   0.00062   2.61469
    R3        2.58532  -0.00028   0.00000  -0.00105  -0.00105   2.58428
    R4        2.03368   0.00002   0.00000   0.00000   0.00000   2.03368
    R5        2.67883  -0.00008   0.00000  -0.00015  -0.00015   2.67868
    R6        2.03614  -0.00001   0.00000   0.00000   0.00000   2.03614
    R7        2.54577   0.00012   0.00000   0.00027   0.00027   2.54604
    R8        2.63460  -0.00019   0.00000  -0.00032  -0.00032   2.63428
    R9        1.90740   0.00004   0.00000   0.00009   0.00009   1.90748
    A1        2.28261  -0.00017   0.00000  -0.00128  -0.00128   2.28132
    A2        2.14122  -0.00001   0.00000   0.00069   0.00069   2.14190
    A3        1.85936   0.00018   0.00000   0.00060   0.00060   1.85996
    A4        2.21831   0.00008   0.00000  -0.00014  -0.00014   2.21816
    A5        1.83811  -0.00025   0.00000  -0.00084  -0.00084   1.83727
    A6        2.22677   0.00017   0.00000   0.00098   0.00098   2.22775
    A7        2.23324  -0.00009   0.00000  -0.00040  -0.00040   2.23284
    A8        1.96180   0.00009   0.00000   0.00039   0.00039   1.96219
    A9        2.08815  -0.00001   0.00000   0.00002   0.00002   2.08816
   A10        1.80028  -0.00003   0.00000  -0.00020  -0.00020   1.80009
   A11        1.96522   0.00001   0.00000   0.00006   0.00006   1.96528
   A12        2.24624   0.00000   0.00000  -0.00001  -0.00001   2.24623
   A13        2.07173  -0.00001   0.00000  -0.00005  -0.00005   2.07168
    D1        0.00000   0.00000   0.00000   0.00000   0.00000   0.00000
    D2        3.14159   0.00000   0.00000   0.00000   0.00000   3.14159
    D3        3.14159   0.00000   0.00000   0.00000   0.00000   3.14159
    D4        0.00000   0.00000   0.00000   0.00000   0.00000   0.00000
    D5        3.14159   0.00000   0.00000   0.00000   0.00000   3.14159
    D6        0.00000   0.00000   0.00000   0.00000   0.00000   0.00000
    D7        0.00000   0.00000   0.00000   0.00000   0.00000   0.00000
    D8        3.14159   0.00000   0.00000   0.00000   0.00000   3.14159
    D9        3.14159   0.00000   0.00000   0.00000   0.00000   3.14159
   D10        0.00000   0.00000   0.00000   0.00000   0.00000   0.00000
   D11        0.00000   0.00000   0.00000   0.00000   0.00000   0.00000
   D12        3.14159   0.00000   0.00000   0.00000   0.00000   3.14159
   D13        0.00000   0.00000   0.00000   0.00000   0.00000   0.00000
   D14        3.14159   0.00000   0.00000   0.00000   0.00000   3.14159
   D15        0.00000   0.00000   0.00000   0.00000   0.00000   0.00000
   D16        3.14159   0.00000   0.00000   0.00000   0.00000   3.14159
         Item               Value     Threshold  Converged?
 Maximum Force            0.000281     0.000450     YES
 RMS     Force            0.000095     0.000300     YES
 Maximum Displacement     0.001136     0.001800     YES
 RMS     Displacement     0.000353     0.001200     YES
 Predicted change in Energy=-6.406601D-07
 Optimization completed.
    -- Stationary point found.
                         ----------------------------
                         !   Optimized Parameters   !
                         ! (Angstroms and Degrees)  !
 ------------------------                            -------------------------
 ! Name  Definition              Value          Derivative Info.             !
 -----------------------------------------------------------------------------
 ! R1    R(1,2)                  1.0773         -DE/DX =    0.               !
 ! R2    R(2,4)                  1.3833         -DE/DX =    0.0002           !
 ! R3    R(2,9)                  1.3681         -DE/DX =   -0.0003           !
 ! R4    R(3,4)                  1.0762         -DE/DX =    0.               !
 ! R5    R(4,6)                  1.4176         -DE/DX =   -0.0001           !
 ! R6    R(5,6)                  1.0775         -DE/DX =    0.               !
 ! R7    R(6,7)                  1.3472         -DE/DX =    0.0001           !
 ! R8    R(7,9)                  1.3942         -DE/DX =   -0.0002           !
 ! R9    R(8,9)                  1.0094         -DE/DX =    0.               !
 ! A1    A(1,2,4)              130.7836         -DE/DX =   -0.0002           !
 ! A2    A(1,2,9)              122.6826         -DE/DX =    0.               !
 ! A3    A(4,2,9)              106.5338         -DE/DX =    0.0002           !
 ! A4    A(2,4,3)              127.0995         -DE/DX =    0.0001           !
 ! A5    A(2,4,6)              105.316          -DE/DX =   -0.0002           !
 ! A6    A(3,4,6)              127.5845         -DE/DX =    0.0002           !
 ! A7    A(4,6,5)              127.955          -DE/DX =   -0.0001           !
 ! A8    A(4,6,7)              112.403          -DE/DX =    0.0001           !
 ! A9    A(5,6,7)              119.642          -DE/DX =    0.               !
 ! A10   A(6,7,9)              103.1487         -DE/DX =    0.               !
 ! A11   A(2,9,7)              112.5986         -DE/DX =    0.               !
 ! A12   A(2,9,8)              128.7001         -DE/DX =    0.               !
 ! A13   A(7,9,8)              118.7013         -DE/DX =    0.               !
 ! D1    D(1,2,4,3)              0.             -DE/DX =    0.               !
 ! D2    D(1,2,4,6)            180.             -DE/DX =    0.               !
 ! D3    D(9,2,4,3)            180.             -DE/DX =    0.               !
 ! D4    D(9,2,4,6)              0.             -DE/DX =    0.               !
 ! D5    D(1,2,9,7)            180.             -DE/DX =    0.               !
 ! D6    D(1,2,9,8)              0.             -DE/DX =    0.               !
 ! D7    D(4,2,9,7)              0.             -DE/DX =    0.               !
 ! D8    D(4,2,9,8)            180.             -DE/DX =    0.               !
 ! D9    D(2,4,6,5)            180.             -DE/DX =    0.               !
 ! D10   D(2,4,6,7)              0.             -DE/DX =    0.               !
 ! D11   D(3,4,6,5)              0.             -DE/DX =    0.               !
 ! D12   D(3,4,6,7)            180.             -DE/DX =    0.               !
 ! D13   D(4,6,7,9)              0.             -DE/DX =    0.               !
 ! D14   D(5,6,7,9)            180.             -DE/DX =    0.               !
 ! D15   D(6,7,9,2)              0.             -DE/DX =    0.               !
 ! D16   D(6,7,9,8)            180.             -DE/DX =    0.               !
 -----------------------------------------------------------------------------
 GradGradGradGradGradGradGradGradGradGradGradGradGradGradGradGradGradGrad

 1\1\GINC-QUANTUM\Freq\RB3PW91\3-21G\C3H4N2\RDJ3\05-May-2000\0\\#N GEOM
 =ALLCHECK GUESS=TCHECK RB3PW91/3-21G FREQ\\1H pyrazole C3H4N2 casno=28
 8131\\0,1\H,-1.884929328,0.,-1.2056680511\C,-0.9457768918,0.,-0.677809
 4402\H,0.6737353778,0.,-2.1760836741\C,0.3551115595,0.,-1.1481550243\H
 ,2.2483479316,0.,0.0622029242\C,1.1721213757,0.,0.0102967968\N,0.45021
 01618,0.,1.1477057216\H,-1.6155466348,0.,1.3639213397\N,-0.8659735343,
 0.,0.6879562023\\Version=IBM-RS6000-G98RevA.6\State=1-A'\HF=-224.85824
 81\RMSD=3.171e-09\RMSF=1.750e-04\Dipole=-0.8208255,0.,-0.4430746\Dipol
 eDeriv=0.0156381,0.0000014,-0.0395076,0.0000058,0.2064177,-0.0000301,-
 0.0416259,0.000002,0.0809175,0.1022087,-0.0001037,-0.1088025,-0.000057
 ,-0.074205,0.0000226,-0.3014217,-0.0000626,0.1822783,0.1025603,-0.0000
 056,0.0286927,0.000041,0.1813486,-0.0000063,0.0374186,0.0000165,-0.018
 3807,-0.2815322,0.0000486,0.0010976,-0.0000202,-0.2434555,0.0000736,-0
 .0552618,-0.0001053,-0.0209926,-0.0324636,0.0000682,-0.0213805,-0.0000
 062,0.1678524,-0.000039,-0.0105132,0.0000075,0.0945576,0.1901418,-0.00
 00304,0.1296225,0.0001001,-0.1001483,0.0000453,0.1734659,0.0000411,0.0
 64523,0.0637816,-0.0000744,-0.161108,-0.0001059,-0.1906973,-0.0000827,
 -0.0353842,0.0000121,-0.4280735,0.2357292,0.0000015,-0.0378296,0.00001
 97,0.3732087,0.0000071,-0.0481941,-0.0000024,0.2446401,-0.3960632,0.00
 00946,0.2092151,0.0000226,-0.3203212,0.0000097,0.2815162,0.000091,-0.1
 994693\Polar=46.1217726,-0.0005493,12.2617439,-0.6776294,-0.0007489,41
 .3808155\PG=CS [SG(C3H4N2)]\NImag=0\\0.30233309,-0.00000119,0.02203770
 ,0.14146545,-0.00000083,0.13126601,-0.29783883,0.00000210,-0.12597948,
 0.85392644,0.00000142,-0.02934055,0.00000015,-0.00000716,0.13335230,-0
 .13469643,0.00000033,-0.12684227,0.11305704,0.00000144,0.61619358,0.00
 025137,0.00000033,-0.00095172,0.00121120,-0.00000122,0.02865785,0.0816
 4757,0.00000028,-0.00319018,0.00000063,-0.00000199,-0.00006590,-0.0000
 0397,0.00000019,0.02456817,0.00060029,-0.00000071,-0.00001809,-0.00560
 979,0.00000270,-0.00093657,-0.09547959,0.00000074,0.35543586,-0.007194
 07,0.00000013,0.01120871,-0.32890942,0.00000277,0.07041468,-0.08726727
 ,0.00000111,0.08981887,0.60746708,0.00000048,0.00276330,0.00000013,-0.
 00000165,-0.07368865,0.00000132,-0.00000049,-0.03147661,0.00000056,-0.
 00000019,0.13478750,-0.01692776,0.00000148,0.01236298,0.09137412,-0.00
 000820,-0.13750892,0.08641148,-0.00000099,-0.34249070,-0.12782142,-0.0
 0000278,0.82876219,-0.00031707,-0.00000116,0.00022298,-0.00016117,0.00
 000518,-0.00051281,-0.00015128,-0.00000040,-0.00081698,-0.00510643,0.0
 0000231,0.00549286,0.38093440,-0.00000081,0.00066489,-0.00000059,-0.00
 000007,0.00441584,-0.00000064,0.00000023,-0.00206562,-0.00000059,0.000
 00056,0.00179880,-0.00000052,0.00000052,0.02587991,-0.00098311,-0.0000
 0009,0.00093586,-0.00319105,0.00000052,-0.00634403,0.00091400,0.000000
 08,0.00030429,-0.02355080,0.00000008,0.00661133,0.01533077,0.00000012,
 0.05614385,-0.00405900,-0.00000015,0.00490361,-0.07022660,0.00000281,-
 0.00733247,0.01255861,-0.00000058,0.01442034,-0.16999388,-0.00000070,-
 0.08911819,-0.36321480,-0.00000009,-0.02584476,0.88072257,-0.00000348,
 0.00527037,-0.00000184,0.00000578,0.01508226,-0.00000127,0.00000099,-0
 .00133796,-0.00000234,0.00000021,-0.07465994,0.00000452,-0.00000331,-0
 .03354370,-0.00000042,-0.00000504,0.14873136,0.00098914,-0.00000033,-0
 .00238439,-0.06866877,-0.00000420,0.03084532,-0.01781728,0.00000040,-0
 .01036234,-0.06285016,0.00000230,-0.21292333,-0.01772395,-0.00000043,-
 0.05774837,-0.00089682,0.00000709,0.55104606,0.00137885,0.00000083,0.0
 0107347,-0.05642263,-0.00000794,-0.05043650,-0.00212312,-0.00000057,-0
 .00055056,0.01917288,-0.00000105,0.03357647,-0.01270823,-0.00000157,0.
 02901629,-0.15643883,0.00000710,0.12890997,0.40796398,0.00000471,0.005
 85218,0.00000249,-0.00000541,0.01678586,0.00000294,-0.00000115,0.00612
 603,0.00000223,-0.00000080,0.02265281,-0.00000195,0.00000225,-0.006735
 37,0.00000035,0.00000688,-0.07276127,-0.00001051,-0.00000581,0.1004226
 9,0.00300804,-0.00000102,-0.00452195,-0.01981447,0.00001001,-0.0691687
 2,-0.00567431,-0.00000138,-0.00256903,-0.03066061,0.00000060,-0.083466
 24,-0.00369672,0.00000026,0.00342854,0.07756063,-0.00001077,-0.2595214
 9,-0.05339060,0.00001334,0.50213637,-0.00021917,-0.00000010,0.00050578
 ,0.00934767,0.00000121,-0.00710493,0.00059606,-0.00000022,-0.00007067,
 0.00201986,0.00000019,-0.00352567,-0.00029904,0.00000027,0.00134080,-0
 .00638191,-0.00000166,-0.00561653,-0.01765170,0.00000149,0.02536199,0.
 28845022,-0.00000061,-0.00152247,-0.00000041,0.,-0.00597493,-0.0000003
 8,0.00000006,0.00198462,-0.00000014,0.00000071,0.00354782,-0.00000023,
 0.00000002,0.00183801,0.,-0.00000072,0.00443503,0.00000075,0.00000030,
 -0.01001905,-0.00000083,-0.00000024,0.01467605,-0.00062707,-0.00000019
 ,-0.00013363,0.02646401,-0.00000040,-0.00539496,0.00119304,-0.00000030
 ,0.00015005,-0.00266367,0.00000057,-0.00618495,-0.00042075,-0.00000079
 ,0.00105964,-0.00711105,0.00000152,0.00049808,-0.01257282,-0.00000119,
 0.01385697,-0.20260125,0.00000025,0.24941908,0.00566483,-0.00000078,-0
 .03244879,-0.11092668,0.00000294,-0.01204643,-0.00672313,0.00000218,-0
 .00231192,-0.03018876,0.00000110,0.02053812,0.00102364,0.00000096,0.00
 696786,-0.12296618,-0.00000058,0.04367441,-0.18317120,-0.00000215,0.00
 730605,-0.27586199,0.00000046,0.19833955,0.72314945,-0.00000080,-0.002
 53523,0.00000026,0.00000838,-0.06056623,0.00000023,0.00000107,0.005457
 46,-0.00000245,-0.00000451,0.01427498,0.00000867,-0.00000540,0.0077472
 5,-0.00000064,-0.00000241,0.00878385,0.00000493,0.00000870,-0.06232388
 ,-0.00001021,-0.00000095,-0.00896508,0.00000054,-0.00000410,0.09812689
 ,0.00717145,0.00000134,-0.01066452,-0.00763161,-0.00000201,-0.30084343
 ,0.00274652,0.00000480,0.00048656,0.07610440,-0.00000279,-0.06516237,0
 .00212461,0.00000318,-0.00439110,0.03341868,0.00000350,-0.03944955,-0.
 07562571,-0.00000769,-0.10017444,0.19171048,0.00000098,-0.25327026,-0.
 23001882,-0.00000133,0.77346909\\-0.00006167,0.,0.00006835,0.00004122,
 0.,-0.00063822,0.00003273,0.,0.00003127,-0.00033913,0.,0.00033404,0.00
 000613,0.,0.00003049,0.00020545,0.,0.00001856,0.00020417,0.,-0.0000862
 0,0.00002989,0.,-0.00002768,-0.00011878,0.,0.00026940\\\@

 I SUPPOSE A BABY LLAMA HAS A MMAMA AND A PPOPA.
     -- RICHARD AMOUR
 Job cpu time:  0 days  0 hours  5 minutes  4.0 seconds.
 File lengths (MBytes):  RWF=   10 Int=    0 D2E=    0 Chk=    3 Scr=    1
 Normal termination of Gaussian 98.
