 Gaussian 03, Revision C.02,
 Gaussian 03:  IA32L-G03RevC.02 12-Jun-2004

 ----------------------------
 #B3PW91/6-311G(d,p) opt freq
 ----------------------------

 --------------------------------------------------
 1H pyrazole C3H4N2 casno=288131 method=16 basis=21
 --------------------------------------------------
 Symbolic Z-matrix:
 Charge =  0 Multiplicity = 1

 SCF Done:  E(RB+HF-PW91) =  -226.109812897     A.U. after   13 cycles
 SCF Done:  E(RB+HF-PW91) =  -226.162905834     A.U. after   13 cycles
 SCF Done:  E(RB+HF-PW91) =  -226.172496543     A.U. after   12 cycles
 SCF Done:  E(RB+HF-PW91) =  -226.172637144     A.U. after   10 cycles
 SCF Done:  E(RB+HF-PW91) =  -226.172684375     A.U. after   10 cycles
 SCF Done:  E(RB+HF-PW91) =  -226.172686037     A.U. after    7 cycles
 Optimization completed.
    -- Stationary point found.
 Normal termination of Gaussian 03 at Fri Jan  7 18:25:05 2005.

 ----------------------------------------------------------------------
 #N Geom=AllCheck Guess=Read SCRF=Check GenChk RB3PW91/6-311G(d,p) Freq
 ----------------------------------------------------------------------

 1H pyrazole C3H4N2 casno=288131 method=16 basis=21
 --------------------------------------------------
 Redundant internal coordinates taken from checkpoint file:
 /scratch/Gau-17024.chk
 Charge =  0 Multiplicity = 1

                         Standard orientation:
 ---------------------------------------------------------------------
 Center     Atomic     Atomic              Coordinates (Angstroms)
 Number     Number      Type              X           Y           Z
 ---------------------------------------------------------------------
    1          1             0        2.102176    0.725913    0.000000
    2          6             0        1.108851    0.304484    0.000000
    3          1             0        1.260105   -1.894376    0.000000
    4          6             0        0.660872   -0.997980    0.000000
    5          1             0       -1.482705   -1.674991    0.000000
    6          6             0       -0.744370   -0.886191    0.000000
    7          7             0       -1.140870    0.380524    0.000000
    8          1             0       -0.045602    2.086704    0.000000
    9          7             0        0.000000    1.081601    0.000000
 ---------------------------------------------------------------------

 SCF Done:  E(RB+HF-PW91) =  -226.172686037     A.U. after    1 cycles

 The electronic state is 1-A'.
 Alpha  occ. eigenvalues --  -14.37963 -14.31631 -10.19710 -10.17360 -10.15463
 Alpha  occ. eigenvalues --   -1.05822  -0.82447  -0.78694  -0.61731  -0.60183
 Alpha  occ. eigenvalues --   -0.55109  -0.44979  -0.44595  -0.43240  -0.40256
 Alpha  occ. eigenvalues --   -0.29391  -0.26559  -0.25566
 Alpha virt. eigenvalues --    0.01312   0.04927   0.06330   0.08920   0.10076
 Alpha virt. eigenvalues --    0.11951   0.20223   0.21374   0.24990   0.26816
 Alpha virt. eigenvalues --    0.34844   0.38758   0.39471   0.40849   0.42050

 Mulliken atomic charges:
              1
     1  H    0.118482
     2  C    0.144386
     3  H    0.109625
     4  C   -0.349559
     5  H    0.112304
     6  C    0.088922
     7  N   -0.220972
     8  H    0.244012
     9  N   -0.247200
 Sum of Mulliken charges=   0.00000

 Dipole moment (field-independent basis, Debye):
    X=     2.0928    Y=     0.9316    Z=     0.0000  Tot=     2.2908
 Quadrupole moment (field-independent basis, Debye-Ang):
   XX=   -29.4209   YY=   -21.8766   ZZ=   -31.7105
   XY=     2.5324   XZ=     0.0000   YZ=     0.0000

  Exact polarizability:  48.348   1.866  49.469   0.000   0.000  22.222
 Approx polarizability:  79.276   1.188  81.284   0.000   0.000  32.532

                     1                      2                      3
                    A"                     A"                     A"
 Frequencies --   551.6035               641.7003               698.4086
 Red. masses --     1.7541                 2.4484                 2.7229
 Frc consts  --     0.3145                 0.5940                 0.7825
 IR Inten    --    58.5904                 0.0817                24.4165

                     4                      5                      6
                    A"                     A"                     A"
 Frequencies --   758.0325               849.6356               901.4769
 Red. masses --     1.2111                 1.2289                 1.3445
 Frc consts  --     0.4100                 0.5227                 0.6437
 IR Inten    --    92.5072                11.2458                 3.9034

                     7                      8                      9
                    A'                     A'                     A'
 Frequencies --   923.1984               943.3782              1056.2521
 Red. masses --     5.5230                 3.6640                 1.4646
 Frc consts  --     2.7734                 1.9212                 0.9627
 IR Inten    --     9.5019                 4.6337                16.4543

                    10                     11                     12
                    A'                     A'                     A'
 Frequencies --  1060.5692              1152.7399              1197.3675
 Red. masses --     1.5101                 1.7761                 3.3131
 Frc consts  --     1.0007                 1.3905                 2.7986
 IR Inten    --    33.8443                18.6316                 2.0228

                    13                     14                     15
                    A'                     A'                     A'
 Frequencies --  1286.6390              1395.2566              1437.9493
 Red. masses --     1.6972                 2.7742                 4.1342
 Frc consts  --     1.6554                 3.1820                 5.0365
 IR Inten    --     3.3299                 3.0215                14.3818

                    16                     17                     18
                    A'                     A'                     A'
 Frequencies --  1495.4977              1576.1130              3246.0686
 Red. masses --     2.7143                 3.0372                 1.0932
 Frc consts  --     3.5766                 4.4452                 6.7866
 IR Inten    --     5.8622                 5.6757                 3.5192

                    19                     20                     21
                    A'                     A'                     A'
 Frequencies --  3260.9002              3279.8492              3683.6375
 Red. masses --     1.0939                 1.1078                 1.0817
 Frc consts  --     6.8534                 7.0211                 8.6478
 IR Inten    --     1.6180                 0.6215                82.5083

 - Thermochemistry -
 -------------------
 Temperature   298.150 Kelvin.  Pressure   1.00000 Atm.
 Atom  1 has atomic number  1 and mass   1.00783

 Molecular mass:    68.03745 amu.
 Principal axes and moments of inertia in atomic units:
                           1         2         3
     EIGENVALUES --   185.85611 190.34304 376.19915
           X            0.91360   0.40663   0.00000
           Y           -0.40663   0.91360   0.00000
           Z            0.00000   0.00000   1.00000
 This molecule is an asymmetric top.
 Rotational symmetry number  1.
 Rotational temperatures (Kelvin)      0.46603     0.45504     0.23023
 Rotational constants (GHZ):           9.71042     9.48152     4.79730
 Zero-point vibrational energy     187791.4 (Joules/Mol)
                                   44.88323 (Kcal/Mol)
 Warning -- explicit consideration of   1 degrees of freedom as
           vibrations may cause significant error
 Vibrational temperatures:    793.63   923.26  1004.85  1090.64  1222.43
          (Kelvin)           1297.02  1328.27  1357.31  1519.71  1525.92
                             1658.53  1722.74  1851.18  2007.46  2068.89
                             2151.68  2267.67  4670.36  4691.70  4718.97
                             5299.93

 Zero-point correction=                           0.071526 (Hartree/Particle)
 Thermal correction to Energy=                    0.075235
 Thermal correction to Enthalpy=                  0.076179
 Thermal correction to Gibbs Free Energy=         0.045283
 Sum of electronic and zero-point Energies=           -226.101160
 Sum of electronic and thermal Energies=              -226.097451
 Sum of electronic and thermal Enthalpies=            -226.096507
 Sum of electronic and thermal Free Energies=         -226.127403

                     E (Thermal)             CV                S
                      KCal/Mol        Cal/Mol-Kelvin    Cal/Mol-Kelvin
 Total                   47.210             13.149             65.025
 Electronic               0.000              0.000              0.000
 Translational            0.889              2.981             38.570
 Rotational               0.889              2.981             24.102
 Vibrational             45.433              7.187              2.353
 Vibration  1             0.907              1.136              0.541

 Optimization completed.
    -- Stationary point found.
 Normal termination of Gaussian 03 at Fri Jan  7 18:40:10 2005.
