 Gaussian 98, Revision A.6,
 Gaussian 98:  x86-Linux-G98RevA.6 19-Oct-1998

 -----------------------------
 #B3PW91/6-31G(2df,p) opt freq
 -----------------------------

 ---------------------------------------
 1hpyraz casno=288131 method=16 basis=19
 ---------------------------------------
 Symbolic Z-matrix:
 Charge =  0 Multiplicity = 1

 SCF Done:  E(RB+HF-PW91) =  -226.131622026     A.U. after   14 cycles
 SCF Done:  E(RB+HF-PW91) =  -226.132945839     A.U. after   11 cycles
 SCF Done:  E(RB+HF-PW91) =  -226.132998773     A.U. after    9 cycles
 SCF Done:  E(RB+HF-PW91) =  -226.133005040     A.U. after    9 cycles
 Optimization completed.
    -- Stationary point found.
 Normal termination of Gaussian 98.

 -------------------------------------------------------
 #N Geom=AllCheck Guess=TCheck RB3PW91/6-31G(2df,p) Freq
 -------------------------------------------------------

 1hpyraz casno=288131 method=16 basis=19
 ---------------------------------------
 Redundant internal coordinates taken from checkpointfile:
 /scr/rdj3/Gau-15840.chk
 Charge =  0 Multiplicity = 1

                         Standard orientation:
 ---------------------------------------------------------------------
 Center     Atomic     Atomic              Coordinates (Angstroms)
 Number     Number      Type              X           Y           Z
 ---------------------------------------------------------------------
    1          1             0        2.098689    0.731662    0.000000
    2          6             0        1.106990    0.305745    0.000000
    3          1             0        1.262879   -1.893344    0.000000
    4          6             0        0.661437   -0.998224    0.000000
    5          1             0       -1.479691   -1.678104    0.000000
    6          6             0       -0.742756   -0.887254    0.000000
    7          7             0       -1.141325    0.380619    0.000000
    8          1             0       -0.046628    2.085418    0.000000
    9          7             0        0.000000    1.081204    0.000000
 ---------------------------------------------------------------------

 SCF Done:  E(RB+HF-PW91) =  -226.133005040     A.U. after    1 cycles

  The electronic state is 1-A'.
 Alpha  occ. eigenvalues --  -14.39176 -14.32886 -10.20471 -10.18263 -10.16338
 Alpha  occ. eigenvalues --   -1.04875  -0.81630  -0.77885  -0.61030  -0.59389
 Alpha  occ. eigenvalues --   -0.54340  -0.44107  -0.43889  -0.42508  -0.39383
 Alpha  occ. eigenvalues --   -0.28647  -0.25795  -0.24762
 Alpha virt. eigenvalues --    0.02314   0.07461   0.09002   0.14286   0.16527
 Alpha virt. eigenvalues --    0.17636   0.22229   0.23276   0.27802   0.34337
 Alpha virt. eigenvalues --    0.41342   0.43162   0.48178   0.49283   0.52318

  Exact polarizability:  47.892   1.995  49.048   0.005  -0.004  20.941
 Approx polarizability:  79.461   1.318  81.924   0.000   0.000  32.460

                     1                      2                      3
                    A"                     A"                     A"
 Frequencies --   544.1620               640.5498               700.6671
 Red. masses --     1.7148                 2.6274                 2.8160
 Frc consts  --     0.2992                 0.6352                 0.8145
 IR Inten    --    49.8646                 0.0462                22.4974
 Raman Activ --     0.0000                 0.0000                 0.0000

                     4                      5                      6
                    A"                     A"                     A"
 Frequencies --   764.4158               842.5220               900.5678
 Red. masses --     1.2118                 1.2170                 1.3102
 Frc consts  --     0.4172                 0.5090                 0.6261
 IR Inten    --    69.4128                 7.9169                 4.9897
 Raman Activ --     0.0000                 0.0000                 0.0000

                     7                      8                      9
                    A'                     A'                     A'
 Frequencies --   918.2186               940.4077              1060.7491
 Red. masses --     5.6737                 3.7091                 1.4633
 Frc consts  --     2.8185                 1.9326                 0.9701
 IR Inten    --     9.1503                 5.9918                15.1357
 Raman Activ --     0.0000                 0.0000                 0.0000

                    10                     11                     12
                    A'                     A'                     A'
 Frequencies --  1065.4257              1158.5279              1200.0764
 Red. masses --     1.4968                 1.7628                 3.2318
 Frc consts  --     1.0011                 1.3940                 2.7423
 IR Inten    --    28.0126                15.5854                 1.6346
 Raman Activ --     0.0000                 0.0000                 0.0000

                    13                     14                     15
                    A'                     A'                     A'
 Frequencies --  1291.2142              1395.8622              1437.0540
 Red. masses --     1.6366                 2.8449                 4.2170
 Frc consts  --     1.6077                 3.2659                 5.1310
 IR Inten    --     4.0534                 2.9771                14.8701
 Raman Activ --     0.0000                 0.0000                 0.0000

                    16                     17                     18
                    A'                     A'                     A'
 Frequencies --  1498.0425              1577.0692              3253.9578
 Red. masses --     2.7982                 3.1229                 1.0923
 Frc consts  --     3.6998                 4.5762                 6.8140
 IR Inten    --     5.2830                 6.4162                 4.6821
 Raman Activ --     0.0000                 0.0000                 0.0000

                    19                     20                     21
                    A'                     A'                     A'
 Frequencies --  3270.0584              3291.3260              3696.6004
 Red. masses --     1.0937                 1.1070                 1.0814
 Frc consts  --     6.8905                 7.0656                 8.7064
 IR Inten    --     2.0377                 0.9880                81.2249
 Raman Activ --     0.0000                 0.0000                 0.0000

 - Thermochemistry -
 -------------------
 Temperature   298.150 Kelvin.  Pressure   1.00000 Atm.
 Atom  1 has atomic number  1 and mass   1.00783

 Molecular mass:    68.03745 amu.
 Principal axes and moments of inertia in atomic units:
                           1         2         3
     EIGENVALUES --   185.89668 190.17706 376.07375
           X            0.89768   0.44064   0.00000
           Y           -0.44064   0.89768   0.00000
           Z            0.00000   0.00000   1.00000
 THIS MOLECULE IS AN ASYMMETRIC TOP.
 ROTATIONAL SYMMETRY NUMBER  1.
 ROTATIONAL TEMPERATURES (KELVIN)      0.46592     0.45544     0.23031
 ROTATIONAL CONSTANTS (GHZ)            9.70830     9.48979     4.79890
 Zero-point vibrational energy     188097.7 (Joules/Mol)
                                   44.95643 (Kcal/Mol)
 WARNING-- EXPLICIT CONSIDERATION OF   1 DEGREES OF FREEDOM AS
           VIBRATIONS MAY CAUSE SIGNIFICANT ERROR
 VIBRATIONAL TEMPERATURES:    782.92   921.60  1008.10  1099.82  1212.19
          (KELVIN)           1295.71  1321.10  1353.03  1526.17  1532.90
                             1666.85  1726.63  1857.76  2008.32  2067.59
                             2155.34  2269.04  4681.69  4704.86  4735.46
                             5318.55

 Zero-point correction=                           0.071643 (Hartree/Particle)
 Thermal correction to Energy=                    0.075355
 Thermal correction to Enthalpy=                  0.076299
 Thermal correction to Gibbs Free Energy=         0.045398
 Sum of electronic and zero-point Energies=           -226.061362
 Sum of electronic and thermal Energies=              -226.057650
 Sum of electronic and thermal Enthalpies=            -226.056706
 Sum of electronic and thermal Free Energies=         -226.087607

                     E (Thermal)             CV                S
                      KCAL/MOL        CAL/MOL-KELVIN    CAL/MOL-KELVIN
 TOTAL                   47.286             13.156             65.037
 ELECTRONIC               0.000              0.000              0.000
 TRANSLATIONAL            0.889              2.981             38.570
 ROTATIONAL               0.889              2.981             24.101
 VIBRATIONAL             45.509              7.194              2.366
 VIBRATION  1             0.899              1.152              0.556
                       Q            LOG10(Q)             LN(Q)
 TOTAL BOT       0.131376D-20        -20.881484        -48.081393
 TOTAL V=0       0.117927D+13         12.071614         27.795919
 VIB (BOT)       0.144289D-32        -32.840767        -75.618660
 VIB (BOT)  1    0.290009D+00         -0.537589         -1.237844
 VIB (V=0)       0.129518D+01          0.112331          0.258652
 VIB (V=0)  1    0.107802D+01          0.032626          0.075124
 ELECTRONIC      0.100000D+01          0.000000          0.000000
 TRANSLATIONAL   0.220588D+08          7.343582         16.909224
 ROTATIONAL      0.412763D+05          4.615701         10.628044
 ***** Axes restored to original set *****
 -------------------------------------------------------------------
 Center     Atomic                   Forces (Hartrees/Bohr)
 Number     Number              X              Y              Z
 -------------------------------------------------------------------
    1          1           0.000064456   -0.000071158    0.000000000
    2          6          -0.000067042    0.000126222    0.000000000
    3          1           0.000047528    0.000049377    0.000000000
    4          6           0.000360955   -0.000015758    0.000000000
    5          1          -0.000041309    0.000129565    0.000000000
    6          6          -0.000167240    0.000519836    0.000000000
    7          7           0.000018009    0.000036817    0.000000000
    8          1          -0.000019062   -0.000122810    0.000000000
    9          7          -0.000196295   -0.000652091    0.000000000
 -------------------------------------------------------------------
 Cartesian Forces:  Max     0.000652091 RMS     0.000188802

 GradGradGradGradGradGradGradGradGradGradGradGradGradGradGradGradGradGrad
 Berny optimization.
 Internal  Forces:  Max     0.000377297 RMS     0.000154230
 Search for a local minimum.
 Step number   1 out of a maximum of  48
 All quantities printed in internal units (Hartrees-Bohrs-Radians)
 Second derivative matrix not updated -- analytic derivatives used.
     Eigenvalues ---    0.00766   0.01141   0.01635   0.02843   0.05923
     Eigenvalues ---    0.06237   0.09242   0.10254   0.10939   0.11765
     Eigenvalues ---    0.22159   0.26563   0.35317   0.37062   0.37647
     Eigenvalues ---    0.37983   0.40740   0.43702   0.48488   0.50183
     Eigenvalues ---    0.575571000.000001000.000001000.000001000.00000
     Eigenvalues --- 1000.000001000.000001000.000001000.000001000.00000
     Eigenvalues --- 1000.000001000.000001000.000001000.000001000.00000
     Eigenvalues --- 1000.000001000.000001000.00000
 Angle between quadratic step and forces=  28.58 degrees.
 Linear search not attempted -- first point.
 Iteration  1 RMS(Cart)=  0.00059418 RMS(Int)=  0.00000014
 Iteration  2 RMS(Cart)=  0.00000014 RMS(Int)=  0.00000003
 Variable       Old X    -DE/DX   Delta X   Delta X   Delta X     New X
                                 (Linear)    (Quad)   (Total)
    R1        2.03957   0.00003   0.00000   0.00006   0.00006   2.03962
    R2        2.60402  -0.00027   0.00000  -0.00023  -0.00023   2.60379
    R3        2.55411  -0.00010   0.00000  -0.00030  -0.00030   2.55381
    R4        2.03790  -0.00001   0.00000  -0.00007  -0.00007   2.03784
    R5        2.66181   0.00033   0.00000   0.00086   0.00086   2.66268
    R6        2.04275  -0.00007   0.00000  -0.00013  -0.00013   2.04262
    R7        2.51153  -0.00038   0.00000  -0.00063  -0.00063   2.51090
    R8        2.53071  -0.00036   0.00000  -0.00079  -0.00079   2.52992
    R9        1.89973  -0.00012   0.00000  -0.00021  -0.00021   1.89953
    A1        2.30571  -0.00002   0.00000  -0.00055  -0.00055   2.30516
    A2        2.12486   0.00015   0.00000   0.00078   0.00078   2.12565
    A3        1.85261  -0.00013   0.00000  -0.00023  -0.00023   1.85238
    A4        2.22072   0.00000   0.00000  -0.00036  -0.00036   2.22035
    A5        1.82118  -0.00017   0.00000  -0.00048  -0.00048   1.82071
    A6        2.24128   0.00016   0.00000   0.00084   0.00084   2.24212
    A7        2.24206   0.00002   0.00000   0.00052   0.00052   2.24258
    A8        1.95424   0.00017   0.00000   0.00035   0.00035   1.95459
    A9        2.08689  -0.00020   0.00000  -0.00088  -0.00088   2.08601
   A10        1.81675  -0.00024   0.00000  -0.00047  -0.00047   1.81628
   A11        1.97999   0.00037   0.00000   0.00082   0.00082   1.98082
   A12        2.22826  -0.00015   0.00000  -0.00038  -0.00038   2.22789
   A13        2.07493  -0.00022   0.00000  -0.00045  -0.00045   2.07448
    D1        0.00000   0.00000   0.00000   0.00000   0.00000   0.00000
    D2        3.14159   0.00000   0.00000   0.00000   0.00000   3.14159
    D3        3.14159   0.00000   0.00000   0.00000   0.00000   3.14159
    D4        0.00000   0.00000   0.00000   0.00000   0.00000   0.00000
    D5        3.14159   0.00000   0.00000   0.00000   0.00000   3.14159
    D6        0.00000   0.00000   0.00000   0.00000   0.00000   0.00000
    D7        0.00000   0.00000   0.00000   0.00000   0.00000   0.00000
    D8        3.14159   0.00000   0.00000   0.00000   0.00000   3.14159
    D9        3.14159   0.00000   0.00000   0.00000   0.00000   3.14159
   D10        0.00000   0.00000   0.00000   0.00000   0.00000   0.00000
   D11        0.00000   0.00000   0.00000   0.00000   0.00000   0.00000
   D12        3.14159   0.00000   0.00000   0.00000   0.00000   3.14159
   D13        0.00000   0.00000   0.00000   0.00000   0.00000   0.00000
   D14        3.14159   0.00000   0.00000   0.00000   0.00000   3.14159
   D15        0.00000   0.00000   0.00000   0.00000   0.00000   0.00000
   D16        3.14159   0.00000   0.00000   0.00000   0.00000   3.14159
         Item               Value     Threshold  Converged?
 Maximum Force            0.000377     0.000450     YES
 RMS     Force            0.000154     0.000300     YES
 Maximum Displacement     0.001823     0.001800     NO
 RMS     Displacement     0.000594     0.001200     YES
 Predicted change in Energy=-1.058696D-06
 GradGradGradGradGradGradGradGradGradGradGradGradGradGradGradGradGradGrad

 1\1\GINC-PQS3\Freq\RB3PW91\6-31G(2df,p)\C3H4N2\RDJ3\12-May-2004\0\\#N
 GEOM=ALLCHECK GUESS=TCHECK RB3PW91/6-31G(2DF,P) FREQ\\1hpyraz casno=28
 8131 method=16 basis=19\\0,1\H,2.0991977817,0.7302007786,0.\C,1.107202
 6369,0.3049744962,0.\H,1.2615599939,-1.8942228172,0.\C,0.6607421762,-0
 .9986842483,0.\H,-1.480858779,-1.677072835,0.\C,-0.7433735604,-0.88673
 62517,0.\N,-1.1410601351,0.3814138278,0.\H,-0.0451757145,2.0854499558,
 0.\N,0.0007528782,1.0812034495,0.\\Version=x86-Linux-G98RevA.6\State=1
 -A'\HF=-226.133005\RMSD=1.015e-09\RMSF=1.888e-04\Dipole=0.8068314,0.35
 28089,0.\DipoleDeriv=-0.0001828,-0.0336751,0.0004052,-0.0581353,0.0629
 403,0.0001596,-0.0000943,-0.0000486,0.1655827,-0.0057983,-0.1551414,-0
 .0001471,0.0213657,0.3517505,-0.0002912,0.0001775,-0.0000948,-0.079827
 2,0.0480659,0.0702333,0.0000462,0.0624461,0.0123844,-0.0000179,0.00012
 03,0.000032,0.1515645,-0.1392393,-0.1507068,0.0000392,-0.0998526,-0.12
 91708,0.000042,-0.0001803,0.0000044,-0.2037098,0.0094554,-0.0823748,-0
 .0000912,-0.059523,0.0161912,-0.0001085,-0.0000047,0.0000224,0.1276932
 ,0.353041,0.0886867,-0.0001043,0.0368695,0.0586717,0.0004366,0.0004282
 ,-0.0001334,-0.0491399,-0.4986199,0.3110676,0.0002155,0.1810914,-0.101
 6253,-0.0001711,-0.0007545,0.0002537,-0.2429734,0.1728243,-0.0113553,-
 0.000037,-0.0223912,0.2593186,0.0001835,-0.0002526,-0.0000164,0.294987
 6,0.060454,-0.036734,-0.0003265,-0.0618706,-0.5304604,-0.000233,0.0005
 604,-0.0000193,-0.1641776\Polar=47.894422,1.9957021,49.0453747,0.00497
 39,-0.0035187,20.9407861\PG=CS [SG(C3H4N2)]\NImag=0\\0.32685393,0.1169
 4471,0.10002356,-0.00000053,-0.00000030,0.02057575,-0.30884965,-0.1172
 3011,0.00000166,0.82896288,-0.10817342,-0.10935520,0.00000084,0.119367
 97,0.68317677,0.00000400,0.00000181,-0.02502596,-0.00000184,-0.0000085
 9,0.11836315,-0.00006463,0.00074001,-0.00000065,0.01100842,-0.01183944
 ,-0.00000481,0.14864934,-0.00042491,0.00027763,0.00000086,0.01837323,-
 0.00968849,0.00000662,-0.15299154,0.27625486,-0.00000135,-0.00000048,-
 0.00243174,-0.00000190,0.00000138,-0.00274351,0.00000103,-0.00000140,0
 .02188745,0.00179427,-0.02238938,-0.00000252,-0.13346827,-0.06762740,0
 .00001147,-0.15034139,0.14060809,0.00000296,0.63099810,0.00298788,0.00
 392732,-0.00000064,-0.09780912,-0.35223502,-0.00000583,0.14312182,-0.2
 6751860,0.00000023,-0.12811481,0.82143879,-0.00000223,-0.00000104,0.00
 033965,0.00000233,0.00000404,-0.06139513,0.00000150,-0.00000222,-0.025
 53787,-0.00000546,0.00000136,0.11425340,0.00033995,-0.00141633,0.00000
 304,-0.00596107,0.00122448,-0.00001515,0.00025653,0.00053603,-0.000002
 18,-0.00658433,-0.02076059,0.00000539,0.20161848,0.00008885,0.00076936
 ,0.00000300,0.00272448,-0.00094680,-0.00001595,-0.00073273,-0.00012602
 ,-0.00000206,0.00595262,0.00781875,0.00000543,0.15897521,0.22540784,-0
 .00000234,-0.00000105,0.00091614,-0.00000322,0.00000528,0.00445114,0.0
 0000502,-0.00000722,-0.00176872,-0.00000652,0.00000511,0.00079520,0.00
 000465,0.00000469,0.02506844,-0.00082995,-0.00236892,-0.00000148,-0.03
 460340,-0.08703932,0.00001447,-0.00138874,-0.00395160,0.00000057,-0.30
 271629,0.02679078,-0.00000441,-0.20273680,-0.14453331,-0.00000271,0.70
 915147,0.00111041,-0.00648864,-0.00000048,-0.01551766,0.01520357,0.000
 00393,0.02459222,0.00491439,-0.00000206,-0.01025507,-0.11001713,0.0000
 0109,-0.15174356,-0.20679735,0.00000085,0.13066001,0.78439695,0.000002
 60,0.00000142,0.00503553,0.00000051,-0.00001011,0.01031792,-0.00000897
 ,0.00001237,-0.00331700,0.00001067,-0.00000657,-0.06467421,-0.00000597
 ,-0.00000553,-0.03127476,0.00000866,-0.00001304,0.14063844,-0.00171906
 ,0.00436327,0.00000330,-0.09825098,0.01222524,-0.00000774,-0.00682479,
 -0.00191193,-0.00000688,-0.03277215,0.01498226,0.00000584,0.01099672,-
 0.02199708,-0.00000163,-0.13105712,0.07017694,-0.00000794,0.50197591,0
 .00254707,-0.00317388,-0.00000288,-0.01808075,-0.02890069,0.00001378,0
 .00272820,0.00063430,0.00000241,0.08833772,-0.01773020,-0.00000639,0.0
 0795433,-0.01924655,-0.00000547,0.10534579,-0.35663498,0.00001590,-0.0
 3366764,0.58201915,0.00001441,0.00000555,0.00668552,0.00000670,-0.0000
 1070,0.01800135,-0.00000244,0.00000554,0.00669830,0.00000994,-0.000007
 07,0.02017250,-0.00001312,-0.00001452,-0.00773632,-0.00000444,0.000030
 30,-0.07329960,0.00002209,-0.00000721,0.10708209,-0.00012840,-0.000723
 51,-0.00000011,0.01014900,0.02483625,-0.00000064,0.00100902,0.00107551
 ,0.00000015,-0.00613333,0.00418344,-0.00000006,0.00087570,-0.00158678,
 0.00000039,-0.00800619,-0.00523374,0.00000071,0.00713206,-0.03496714,-
 0.00000354,0.06669892,0.00020614,0.00014706,-0.00000118,-0.00564316,-0
 .00708746,0.00000343,-0.00022065,-0.00019064,0.00000097,0.00356489,0.0
 0132276,-0.00000109,0.00041743,-0.00033434,0.00000110,-0.00541789,0.00
 140248,-0.00000443,0.00038319,-0.01434416,0.00000886,-0.02009540,0.484
 92837,0.00000396,0.00000144,-0.00155051,0.00000274,-0.00000279,-0.0077
 5138,-0.00000160,0.00000273,0.00228696,-0.00000181,-0.00000186,0.00302
 771,0.00000212,0.00000182,0.00223403,-0.00000321,0.00000537,0.00448725
 ,0.00000967,-0.00000546,-0.01243455,-0.00000079,0.00000009,0.01291842,
 -0.01739645,0.02208026,-0.00000272,-0.26898693,0.11702564,0.00000024,-
 0.00230375,-0.00131288,0.00000759,-0.00077661,0.05461834,-0.00000290,0
 .00119483,0.00110875,0.00000636,-0.02781301,-0.04378955,-0.00000027,-0
 .24948058,-0.12019759,-0.00002959,-0.07159677,0.02680545,-0.00001109,0
 .63715927,-0.01528675,0.01387280,0.00000078,0.11381514,-0.19016667,0.0
 0000080,-0.00539790,-0.00455742,0.00000101,-0.01007666,-0.08700668,-0.
 00000117,0.00481300,-0.00654488,-0.00000331,-0.01948553,-0.12597932,0.
 00000997,-0.04455425,-0.14262300,-0.00001076,0.03251137,-0.46584407,-0
 .00000133,-0.05633842,1.00884925,-0.00001852,-0.00000735,-0.00454439,-
 0.00000697,0.00002064,-0.05421758,0.00001092,-0.00001729,0.00492613,-0
 .00001873,0.00001527,0.01301875,0.00002123,0.00002311,0.00731485,-0.00
 000745,-0.00002596,0.01208643,-0.00001672,-0.00000468,-0.06516929,0.00
 000388,-0.00000775,-0.00321793,0.00003238,0.00000400,0.08980304\\-0.00
 006446,0.00007116,0.,0.00006704,-0.00012622,0.,-0.00004753,-0.00004938
 ,0.,-0.00036096,0.00001576,0.,0.00004131,-0.00012957,0.,0.00016724,-0.
 00051984,0.,-0.00001801,-0.00003682,0.,0.00001906,0.00012281,0.,0.0001
 9629,0.00065209,0.\\\@

 ... SUBJECTS WHICH DISCLOSE THEIR FULL POWER, MEANING AND BEAUTY AS SOON
 AS THEY ARE PRESENTED TO THE MIND HAVE VERY LITTLE OF THOSE QUALITIES
 TO DISCLOSE.
                           -- CHARLES DUTTON (1882)
 Job cpu time:  0 days  1 hours  6 minutes 16.3 seconds.
 File lengths (MBytes):  RWF=   29 Int=    0 D2E=    0 Chk=    4 Scr=    1
 Normal termination of Gaussian 98.
