 Gaussian 98, Revision A.4,
 Gaussian 98:  IBM-RS6000-G98RevA.4 11-Sep-1998

 ------------------------
 #B3PW91/6-31G** opt freq
 ------------------------

 -------------------------------
 1H pyrazole C3H4N2 casno=288131
 -------------------------------
 Symbolic Z-matrix:
 Charge =  0 Multiplicity = 1

 SCF Done:  E(RB+HF-PW91) =  -226.056861988     A.U. after   15 cycles
 SCF Done:  E(RB+HF-PW91) =  -226.112523891     A.U. after   13 cycles
 SCF Done:  E(RB+HF-PW91) =  -226.123139110     A.U. after   13 cycles
 SCF Done:  E(RB+HF-PW91) =  -226.123290576     A.U. after   10 cycles
 SCF Done:  E(RB+HF-PW91) =  -226.123338507     A.U. after   10 cycles
 SCF Done:  E(RB+HF-PW91) =  -226.123341304     A.U. after    8 cycles
 Optimization completed.
    -- Stationary point found.
 Normal termination of Gaussian 98.

 -----------------------------------------------------
 #N Geom=AllCheck Guess=TCheck RB3PW91/6-31G(d,p) Freq
 -----------------------------------------------------

 1H pyrazole C3H4N2 casno=288131
 -------------------------------
 Redundant internal coordinates taken from checkpointfile:
 /wrk/rdj3/Gau-14556.chk
 Charge =  0 Multiplicity = 1

                         Standard orientation:
 ---------------------------------------------------------------------
 Center     Atomic     Atomic              Coordinates (Angstroms)
 Number     Number      Type              X           Y           Z
 ---------------------------------------------------------------------
    1          1             0        2.103927    0.728814    0.000000
    2          6             0        1.110015    0.305358    0.000000
    3          1             0        1.263172   -1.896568    0.000000
    4          6             0        0.662390   -0.999465    0.000000
    5          1             0       -1.481599   -1.679044    0.000000
    6          6             0       -0.743935   -0.887697    0.000000
    7          7             0       -1.144458    0.381489    0.000000
    8          1             0       -0.045115    2.088492    0.000000
    9          7             0        0.000000    1.082671    0.000000
 ---------------------------------------------------------------------

 SCF Done:  E(RB+HF-PW91) =  -226.123341304     A.U. after    1 cycles

  The electronic state is 1-A'.
 Alpha  occ. eigenvalues --  -14.39966 -14.33534 -10.21000 -10.18650 -10.16762
 Alpha  occ. eigenvalues --   -1.04998  -0.81812  -0.78023  -0.61182  -0.59510
 Alpha  occ. eigenvalues --   -0.54480  -0.44286  -0.43807  -0.42672  -0.39565
 Alpha  occ. eigenvalues --   -0.28749  -0.25820  -0.24819
 Alpha virt. eigenvalues --    0.02205   0.07407   0.08831   0.14098   0.16499
 Alpha virt. eigenvalues --    0.17668   0.22350   0.23432   0.29377   0.40003
 Alpha virt. eigenvalues --    0.43502   0.53569   0.55433   0.56140   0.59903

  Exact polarizability:  46.418   1.907  47.930  -0.001   0.002  17.482
 Approx polarizability:  77.249   0.999  79.331   0.000   0.000  25.830

                     1                      2                      3
                    A"                     A"                     A"
 Frequencies --   535.6019               639.3598               697.2326
 Red. masses --     1.7368                 2.5860                 2.8080
 Frc consts  --     0.2936                 0.6228                 0.8043
 IR Inten    --    59.1062                 0.0113                24.3353
 Raman Activ --     0.0000                 0.0000                 0.0000

                     4                      5                      6
                    A"                     A"                     A"
 Frequencies --   756.9464               841.5879               895.1691
 Red. masses --     1.2113                 1.2132                 1.3143
 Frc consts  --     0.4089                 0.5063                 0.6205
 IR Inten    --    77.8521                10.4366                 4.3486
 Raman Activ --     0.0000                 0.0000                 0.0000

                     7                      8                      9
                    A'                     A'                     A'
 Frequencies --   918.1245               941.2465              1064.1695
 Red. masses --     5.6598                 3.8216                 1.4813
 Frc consts  --     2.8110                 1.9948                 0.9883
 IR Inten    --     8.9002                 5.3492                19.3074
 Raman Activ --     0.0000                 0.0000                 0.0000

                    10                     11                     12
                    A'                     A'                     A'
 Frequencies --  1068.3372              1161.8486              1201.3517
 Red. masses --     1.4732                 1.7531                 3.2288
 Frc consts  --     0.9907                 1.3943                 2.7456
 IR Inten    --    26.3846                17.3901                 2.1218
 Raman Activ --     0.0000                 0.0000                 0.0000

                    13                     14                     15
                    A'                     A'                     A'
 Frequencies --  1294.9131              1404.9830              1453.7129
 Red. masses --     1.6538                 2.7804                 4.2087
 Frc consts  --     1.6339                 3.2336                 5.2403
 IR Inten    --     3.7030                 2.9083                14.3555
 Raman Activ --     0.0000                 0.0000                 0.0000

                    16                     17                     18
                    A'                     A'                     A'
 Frequencies --  1508.8303              1588.9021              3266.4263
 Red. masses --     2.7615                 3.1644                 1.0931
 Frc consts  --     3.7040                 4.7069                 6.8714
 IR Inten    --     6.1645                 6.2421                 4.3324
 Raman Activ --     0.0000                 0.0000                 0.0000

                    19                     20                     21
                    A'                     A'                     A'
 Frequencies --  3281.4886              3300.3989              3703.5099
 Red. masses --     1.0935                 1.1073                 1.0817
 Frc consts  --     6.9376                 7.1065                 8.7417
 IR Inten    --     2.1096                 0.6811                76.8213
 Raman Activ --     0.0000                 0.0000                 0.0000

 - Thermochemistry -
 -------------------
 Temperature   298.150 Kelvin.  Pressure   1.00000 Atm.
 Atom  1 has atomic number  1 and mass   1.00783

 Molecular mass:    68.03745 amu.
 Principal axes and moments of inertia in atomic units:
                           1         2         3
     EIGENVALUES --   186.31175 191.04531 377.35706
           X            0.90880   0.41722   0.00000
           Y           -0.41722   0.90880   0.00000
           Z            0.00000   0.00000   1.00000
 THIS MOLECULE IS AN ASYMMETRIC TOP.
 ROTATIONAL SYMMETRY NUMBER  1.
 ROTATIONAL TEMPERATURES (KELVIN)      0.46488     0.45337     0.22953
 ROTATIONAL CONSTANTS (GHZ)            9.68667     9.44667     4.78258
 Zero-point vibrational energy     188556.3 (Joules/Mol)
                                   45.06603 (Kcal/Mol)
 WARNING-- EXPLICIT CONSIDERATION OF   1 DEGREES OF FREEDOM AS
           VIBRATIONS MAY CAUSE SIGNIFICANT ERROR
 VIBRATIONAL TEMPERATURES:    770.61   919.89  1003.16  1089.07  1210.85
          (KELVIN)           1287.94  1320.97  1354.24  1531.09  1537.09
                             1671.63  1728.47  1863.08  2021.45  2091.56
                             2170.86  2286.06  4699.63  4721.30  4748.51
                             5328.49

 Zero-point correction=                           0.071817 (Hartree/Particle)
 Thermal correction to Energy=                    0.075539
 Thermal correction to Enthalpy=                  0.076483
 Thermal correction to Gibbs Free Energy=         0.045563
 Sum of electronic and zero-point Energies=           -226.051524
 Sum of electronic and thermal Energies=              -226.047803
 Sum of electronic and thermal Enthalpies=            -226.046858
 Sum of electronic and thermal Free Energies=         -226.077778

                     E (Thermal)             CV                S
                      KCAL/MOL        CAL/MOL-KELVIN    CAL/MOL-KELVIN
 TOTAL                   47.401             13.180             65.076
 ELECTRONIC               0.000              0.000              0.000
 TRANSLATIONAL            0.889              2.981             38.570
 ROTATIONAL               0.889              2.981             24.111
 VIBRATIONAL             45.624              7.219              2.395
 VIBRATION  1             0.891              1.171              0.575
                       Q            LOG10(Q)             LN(Q)
 TOTAL BOT       0.110297D-20        -20.957435        -48.256277
 TOTAL V=0       0.119124D+13         12.076000         27.806018
 VIB (BOT)       0.120523D-32        -32.918931        -75.798640
 VIB (BOT)  1    0.297038D+00         -0.527188         -1.213894
 VIB (V=0)       0.130168D+01          0.114504          0.263654
 VIB (V=0)  1    0.108158D+01          0.034057          0.078420
 ELECTRONIC      0.100000D+01          0.000000          0.000000
 TRANSLATIONAL   0.220588D+08          7.343582         16.909224
 ROTATIONAL      0.414872D+05          4.617914         10.633140
 ***** Axes restored to original set *****
 -------------------------------------------------------------------
 Center     Atomic                   Forces (Hartrees/Bohr)
 Number     Number              X              Y              Z
 -------------------------------------------------------------------
    1          1           0.000006256    0.000000000   -0.000093448
    2          6          -0.000254416    0.000000000    0.000442119
    3          1           0.000012769    0.000000000    0.000010388
    4          6           0.000086962    0.000000000   -0.000159127
    5          1           0.000034426    0.000000000    0.000039612
    6          6          -0.000255800    0.000000000    0.000262828
    7          7           0.000171074    0.000000000    0.000013974
    8          1           0.000069196    0.000000000    0.000060159
    9          7           0.000129533    0.000000000   -0.000576506
 -------------------------------------------------------------------
 Cartesian Forces:  Max     0.000576506 RMS     0.000174949

 GradGradGradGradGradGradGradGradGradGradGradGradGradGradGradGradGradGrad
 Berny optimization.
 Internal  Forces:  Max     0.000304494 RMS     0.000092728
 Search for a local minimum.
 Step number   1 out of a maximum of  48
 All quantities printed in internal units (Hartrees-Bohrs-Radians)
 Second derivative matrix not updated -- analytic derivatives used.
     Eigenvalues ---    0.00747   0.01155   0.01615   0.02794   0.05880
     Eigenvalues ---    0.06214   0.09386   0.10390   0.11117   0.11930
     Eigenvalues ---    0.22350   0.26928   0.35612   0.37333   0.37924
     Eigenvalues ---    0.38203   0.41072   0.43907   0.48682   0.50408
     Eigenvalues ---    0.578771000.000001000.000001000.000001000.00000
     Eigenvalues --- 1000.000001000.000001000.000001000.000001000.00000
     Eigenvalues --- 1000.000001000.000001000.000001000.000001000.00000
     Eigenvalues --- 1000.000001000.000001000.00000
 Angle between quadratic step and forces=  33.85 degrees.
 Linear search not attempted -- first point.
 Iteration  1 RMS(Cart)=  0.00031677 RMS(Int)=  0.00000013
 Iteration  2 RMS(Cart)=  0.00000012 RMS(Int)=  0.00000001
 Variable       Old X    -DE/DX   Delta X   Delta X   Delta X     New X
                                 (Linear)    (Quad)   (Total)
    R1        2.04158   0.00004   0.00000   0.00008   0.00008   2.04167
    R2        2.60681   0.00011   0.00000   0.00045   0.00045   2.60727
    R3        2.56080  -0.00030   0.00000  -0.00083  -0.00083   2.55998
    R4        2.04032  -0.00001   0.00000  -0.00003  -0.00003   2.04029
    R5        2.66595   0.00010   0.00000   0.00020   0.00020   2.66615
    R6        2.04438   0.00004   0.00000   0.00013   0.00013   2.04451
    R7        2.51501  -0.00028   0.00000  -0.00046  -0.00046   2.51455
    R8        2.53635   0.00001   0.00000   0.00016   0.00016   2.53651
    R9        1.90264  -0.00001   0.00000  -0.00001  -0.00001   1.90263
    A1        2.30403  -0.00003   0.00000  -0.00072  -0.00072   2.30331
    A2        2.12792   0.00013   0.00000   0.00091   0.00091   2.12883
    A3        1.85123  -0.00011   0.00000  -0.00019  -0.00019   1.85105
    A4        2.22103   0.00004   0.00000   0.00020   0.00020   2.22123
    A5        1.82196  -0.00006   0.00000  -0.00024  -0.00024   1.82172
    A6        2.24020   0.00002   0.00000   0.00004   0.00004   2.24023
    A7        2.24179   0.00000   0.00000  -0.00001  -0.00001   2.24178
    A8        1.95579   0.00007   0.00000   0.00025   0.00025   1.95604
    A9        2.08561  -0.00006   0.00000  -0.00024  -0.00024   2.08537
   A10        1.81480  -0.00010   0.00000  -0.00035  -0.00035   1.81445
   A11        1.98100   0.00020   0.00000   0.00052   0.00052   1.98152
   A12        2.22653  -0.00001   0.00000   0.00052   0.00052   2.22705
   A13        2.07566  -0.00020   0.00000  -0.00105  -0.00105   2.07461
    D1        0.00000   0.00000   0.00000   0.00000   0.00000   0.00000
    D2        3.14159   0.00000   0.00000   0.00000   0.00000   3.14159
    D3        3.14159   0.00000   0.00000   0.00000   0.00000   3.14159
    D4        0.00000   0.00000   0.00000   0.00000   0.00000   0.00000
    D5        3.14159   0.00000   0.00000   0.00000   0.00000   3.14159
    D6        0.00000   0.00000   0.00000   0.00000   0.00000   0.00000
    D7        0.00000   0.00000   0.00000   0.00000   0.00000   0.00000
    D8        3.14159   0.00000   0.00000   0.00000   0.00000   3.14159
    D9        3.14159   0.00000   0.00000   0.00000   0.00000   3.14159
   D10        0.00000   0.00000   0.00000   0.00000   0.00000   0.00000
   D11        0.00000   0.00000   0.00000   0.00000   0.00000   0.00000
   D12        3.14159   0.00000   0.00000   0.00000   0.00000   3.14159
   D13        0.00000   0.00000   0.00000   0.00000   0.00000   0.00000
   D14        3.14159   0.00000   0.00000   0.00000   0.00000   3.14159
   D15        0.00000   0.00000   0.00000   0.00000   0.00000   0.00000
   D16        3.14159   0.00000   0.00000   0.00000   0.00000   3.14159
         Item               Value     Threshold  Converged?
 Maximum Force            0.000304     0.000450     YES
 RMS     Force            0.000093     0.000300     YES
 Maximum Displacement     0.001178     0.001800     YES
 RMS     Displacement     0.000317     0.001200     YES
 Predicted change in Energy=-5.065590D-07
 Optimization completed.
    -- Stationary point found.
                         ----------------------------
                         !   Optimized Parameters   !
                         ! (Angstroms and Degrees)  !
 ------------------------                            -------------------------
 ! Name  Definition              Value          Derivative Info.             !
 -----------------------------------------------------------------------------
 ! R1    R(1,2)                  1.0804         -DE/DX =    0.               !
 ! R2    R(2,4)                  1.3795         -DE/DX =    0.0001           !
 ! R3    R(2,9)                  1.3551         -DE/DX =   -0.0003           !
 ! R4    R(3,4)                  1.0797         -DE/DX =    0.               !
 ! R5    R(4,6)                  1.4108         -DE/DX =    0.0001           !
 ! R6    R(5,6)                  1.0818         -DE/DX =    0.               !
 ! R7    R(6,7)                  1.3309         -DE/DX =   -0.0003           !
 ! R8    R(7,9)                  1.3422         -DE/DX =    0.               !
 ! R9    R(8,9)                  1.0068         -DE/DX =    0.               !
 ! A1    A(1,2,4)              132.0111         -DE/DX =    0.               !
 ! A2    A(1,2,9)              121.9211         -DE/DX =    0.0001           !
 ! A3    A(4,2,9)              106.0678         -DE/DX =   -0.0001           !
 ! A4    A(2,4,3)              127.2554         -DE/DX =    0.               !
 ! A5    A(2,4,6)              104.3907         -DE/DX =   -0.0001           !
 ! A6    A(3,4,6)              128.3539         -DE/DX =    0.               !
 ! A7    A(4,6,5)              128.4451         -DE/DX =    0.               !
 ! A8    A(4,6,7)              112.0584         -DE/DX =    0.0001           !
 ! A9    A(5,6,7)              119.4965         -DE/DX =   -0.0001           !
 ! A10   A(6,7,9)              103.9804         -DE/DX =   -0.0001           !
 ! A11   A(2,9,7)              113.5027         -DE/DX =    0.0002           !
 ! A12   A(2,9,8)              127.5707         -DE/DX =    0.               !
 ! A13   A(7,9,8)              118.9266         -DE/DX =   -0.0002           !
 ! D1    D(1,2,4,3)              0.             -DE/DX =    0.               !
 ! D2    D(1,2,4,6)            180.             -DE/DX =    0.               !
 ! D3    D(9,2,4,3)            180.             -DE/DX =    0.               !
 ! D4    D(9,2,4,6)              0.             -DE/DX =    0.               !
 ! D5    D(1,2,9,7)            180.             -DE/DX =    0.               !
 ! D6    D(1,2,9,8)              0.             -DE/DX =    0.               !
 ! D7    D(4,2,9,7)              0.             -DE/DX =    0.               !
 ! D8    D(4,2,9,8)            180.             -DE/DX =    0.               !
 ! D9    D(2,4,6,5)            180.             -DE/DX =    0.               !
 ! D10   D(2,4,6,7)              0.             -DE/DX =    0.               !
 ! D11   D(3,4,6,5)              0.             -DE/DX =    0.               !
 ! D12   D(3,4,6,7)            180.             -DE/DX =    0.               !
 ! D13   D(4,6,7,9)              0.             -DE/DX =    0.               !
 ! D14   D(5,6,7,9)            180.             -DE/DX =    0.               !
 ! D15   D(6,7,9,2)              0.             -DE/DX =    0.               !
 ! D16   D(6,7,9,8)            180.             -DE/DX =    0.               !
 -----------------------------------------------------------------------------
 GradGradGradGradGradGradGradGradGradGradGradGradGradGradGradGradGradGrad

 1\1\GINC-AURUM\Freq\RB3PW91\6-31G(d,p)\C3H4N2\RDJ3\05-Jun-2000\0\\#N G
 EOM=ALLCHECK GUESS=TCHECK RB3PW91/6-31G(D,P) FREQ\\1H pyrazole C3H4N2
 casno=288131\\0,1\H,-1.8926068593,0.,-1.1729100697\C,-0.9370983443,0.,
 -0.6687471348\H,0.674955112,0.,-2.1764677453\C,0.3577628039,0.,-1.1444
 1957\H,2.2374336093,0.,0.0906329116\C,1.1580773475,0.,0.0173633835\N,0
 .4258413599,0.,1.1287061523\H,-1.5921789365,0.,1.3523320892\N,-0.84013
 47553,0.,0.6828985252\\Version=IBM-RS6000-G98RevA.4\State=1-A'\HF=-226
 .1233413\RMSD=3.533e-09\RMSF=1.749e-04\Dipole=-0.8024536,0.,-0.4177179
 \DipoleDeriv=-0.0114548,0.0000464,-0.0485424,0.0000613,0.1740029,0.000
 0237,-0.0327086,0.0000109,0.0732134,0.142025,-0.0000149,-0.1154058,-0.
 000067,-0.081627,-0.0000436,-0.2911356,0.0001065,0.2076615,0.0917914,0
 .00003,0.0281306,0.0000432,0.1576213,-0.0000366,0.0371301,-0.0001176,-
 0.0299855,-0.2528982,0.0000147,0.0009789,-0.0000297,-0.2050285,0.00013
 57,-0.056051,0.0002426,-0.0149068,-0.0523617,-0.0001354,-0.0088562,0.0
 000954,0.1351531,-0.0000284,-0.0266807,-0.00001,0.0785801,0.219119,0.0
 001118,0.1187727,-0.0001057,-0.0597346,-0.0000374,0.1946244,-0.0001824
 ,0.17647,0.0020409,0.0000044,-0.2256885,0.0000145,-0.2368914,-0.000026
 2,-0.0867779,0.0001014,-0.5774752,0.205215,-0.0000369,-0.0440202,0.000
 0215,0.3188438,-0.0000646,-0.0321727,0.0000262,0.2228819,-0.3434759,-0
 .0000201,0.294631,-0.0000335,-0.2023395,0.0000774,0.2937718,-0.0001777
 ,-0.1364391\Polar=49.195478,-0.0006992,17.4818335,-0.3505731,0.0016831
 ,45.1523464\PG=CS [SG(C3H4N2)]\NImag=0\\0.30651427,0.00000006,0.020366
 69,0.13621376,-0.00000029,0.12346111,-0.30099560,-0.00000195,-0.117311
 39,0.86728932,0.00000182,-0.02470233,0.00000124,-0.00000147,0.11697443
 ,-0.12658481,0.00000184,-0.12117139,0.09509834,0.00000218,0.65978863,0
 .00033265,0.00000036,-0.00077716,0.00212892,0.00000038,0.02598732,0.07
 658833,0.00000073,-0.00264187,0.00000025,-0.00000235,-0.00219666,0.000
 00318,0.00000053,0.02187824,0.00037672,-0.00000204,-0.00015654,-0.0035
 5471,-0.00000188,-0.00009093,-0.09429225,-0.00000287,0.35087450,-0.006
 94749,0.00000212,0.00913127,-0.35409835,-0.00000246,0.07797003,-0.0839
 3327,0.00000136,0.08802173,0.63341249,-0.00000175,0.00067951,-0.000000
 87,0.00000254,-0.06186478,-0.00000524,-0.00000069,-0.02574999,0.000003
 60,-0.00000184,0.11466386,-0.01524332,0.00000300,0.01294664,0.10586080
 ,-0.00000040,-0.14278726,0.08549586,0.00000337,-0.33786808,-0.11980649
 ,-0.00000587,0.83997869,-0.00024027,-0.00000294,0.00026535,-0.00075383
 ,-0.00000106,-0.00124248,-0.00007232,-0.00000403,-0.00040887,-0.005102
 54,0.00000694,0.00395322,0.37417814,-0.00000201,0.00090453,-0.00000123
 ,0.00000124,0.00446049,0.00000047,-0.00000028,-0.00185479,0.00000100,0
 .00000459,0.00074142,0.00000270,-0.00000215,0.02457866,-0.00108318,-0.
 00000039,0.00111266,-0.00292154,0.00000050,-0.00594985,0.00083935,-0.0
 0000010,0.00021709,-0.02192870,-0.00000018,0.00686632,0.02091353,0.000
 00011,0.05614372,-0.00449542,0.00000158,0.00471437,-0.05348899,0.00000
 244,0.00067178,0.01318626,0.00000360,0.01257203,-0.18260918,-0.0000071
 6,-0.11146566,-0.35351037,0.00000095,-0.03210838,0.88875236,0.00000217
 ,0.00494391,0.00000134,0.00000019,0.01070013,-0.00000048,0.00000022,-0
 .00313610,-0.00000035,-0.00000448,-0.06458513,-0.00000119,0.00000166,-
 0.03041943,-0.00000002,-0.00000001,0.13859587,0.00096897,-0.00000048,-
 0.00237399,-0.06993042,0.00000076,0.03575489,-0.01505103,-0.00000193,-
 0.00907050,-0.07636626,0.00000736,-0.23874039,-0.02467501,-0.00000739,
 -0.06095510,-0.00995052,0.00000319,0.62218684,0.00065231,0.00000086,0.
 00049234,-0.05855278,0.00000134,-0.05010458,-0.00207350,0.00000159,-0.
 00110732,0.02737785,-0.00000216,0.03962477,-0.01384877,-0.00000158,0.0
 2838791,-0.18298222,0.00000102,0.14807251,0.51964346,0.00000060,0.0066
 5165,0.00000019,-0.00000133,0.01733571,0.00000279,0.00000011,0.0066317
 0,-0.00000108,0.00000273,0.02015887,0.00000296,-0.00000418,-0.00777566
 ,0.00000037,0.00000337,-0.07243730,-0.00000566,0.00000009,0.10560393,0
 .00216493,-0.00000005,-0.00568622,-0.01894716,0.00000165,-0.06694909,-
 0.00603438,0.00000205,-0.00416967,-0.03318430,-0.00000576,-0.07666952,
 -0.00093222,0.00000274,0.00635789,0.11178452,-0.00000060,-0.31215694,-
 0.04747126,0.00000270,0.57093901,-0.00023149,0.00000026,0.00037112,0.0
 0978678,-0.00000195,-0.00449266,0.00072016,-0.00000086,-0.00002395,0.0
 0214546,0.00000131,-0.00328561,-0.00041933,0.00000005,0.00147231,-0.00
 754423,0.00000012,-0.00557480,-0.02170148,-0.00000036,0.02461663,0.300
 46792,0.00000042,-0.00147674,0.00000033,-0.00000168,-0.00797521,0.0000
 0259,0.00000010,0.00227102,-0.00000112,0.00000171,0.00309140,0.0000012
 9,-0.00000350,0.00225088,0.00000033,0.00000369,0.00444437,-0.00000349,
 0.00000122,-0.01250333,0.00000293,-0.00000070,0.01270675,-0.00060791,-
 0.00000022,0.00013187,0.02558730,0.00000147,-0.00525120,0.00129179,0.0
 0000062,0.00014721,-0.00237077,-0.00000079,-0.00707531,-0.00049799,0.0
 0000024,0.00098236,-0.00599359,-0.00000048,0.00097921,-0.01038537,0.00
 000030,0.01589629,-0.20928944,0.00000050,0.25342499,0.00541105,-0.0000
 0036,-0.03309965,-0.11131547,0.00000096,-0.01730295,-0.00687723,-0.000
 00057,-0.00158338,-0.03024497,0.00000281,0.01486642,-0.00023069,-0.000
 00080,0.00642870,-0.11730822,-0.00000089,0.05250654,-0.26851486,-0.000
 00105,-0.03199676,-0.28322376,-0.00000127,0.20226598,0.81230412,-0.000
 00204,-0.00472534,-0.00000096,0.00000480,-0.05273177,-0.00000732,-0.00
 000073,0.00479845,0.00000473,-0.00000371,0.01286483,-0.00000585,0.0000
 0926,0.00711390,-0.00000062,-0.00000850,0.01189368,0.00000764,-0.00000
 236,-0.06366557,-0.00000568,0.00000212,-0.00280915,-0.00000163,0.00000
 116,0.08726097,0.00379484,-0.00000137,-0.00826414,-0.01388121,-0.00000
 551,-0.35334380,0.00254051,-0.00000457,0.00011693,0.07853348,0.0000077
 5,-0.05665109,0.00262448,0.00000136,-0.00477508,0.02977544,-0.00000142
 ,-0.03562403,-0.10750901,-0.00000258,-0.12756175,0.19620639,-0.0000033
 7,-0.25923541,-0.19208490,0.00000970,0.84533835\\-0.00000626,0.,0.0000
 9345,0.00025442,0.,-0.00044212,-0.00001277,0.,-0.00001039,-0.00008696,
 0.,0.00015913,-0.00003443,0.,-0.00003961,0.00025580,0.,-0.00026283,-0.
 00017107,0.,-0.00001397,-0.00006920,0.,-0.00006016,-0.00012953,0.,0.00
 057651\\\@

 Money is a good servant but a bad master.
                        -- French Proverb
 Job cpu time:  0 days  0 hours 15 minutes 37.4 seconds.
 File lengths (MBytes):  RWF=   15 Int=    0 D2E=    0 Chk=    3 Scr=    1
 Normal termination of Gaussian 98.
