 Gaussian 98, Revision A.4,
 Gaussian 98:  x86-Linux-G98RevA.4 11-Sep-1998

 -------------------
 #HF/6-31G* opt freq
 -------------------

 -------------------------------
 1H pyrazole C3H4N2 casno=288131
 -------------------------------
 Symbolic Z-matrix:
 Charge =  0 Multiplicity = 1

 SCF Done:  E(RHF) =  -224.739171260     A.U. after   14 cycles
 SCF Done:  E(RHF) =  -224.787006857     A.U. after   13 cycles
 SCF Done:  E(RHF) =  -224.793171970     A.U. after   13 cycles
 SCF Done:  E(RHF) =  -224.793401020     A.U. after   12 cycles
 SCF Done:  E(RHF) =  -224.793487256     A.U. after   10 cycles
 SCF Done:  E(RHF) =  -224.793493484     A.U. after    9 cycles
 Optimization completed.
    -- Stationary point found.
 Normal termination of Gaussian 98.

 -----------------------------------------------
 #N Geom=AllCheck Guess=TCheck RHF/6-31G(d) Freq
 -----------------------------------------------

 1H pyrazole C3H4N2 casno=288131
 -------------------------------
 Redundant internal coordinates taken from checkpointfile:
 /wrk/rdj3/Gau-10105.chk
 Charge =  0 Multiplicity = 1

                         Standard orientation:
 ---------------------------------------------------------------------
 Center     Atomic     Atomic              Coordinates (Angstroms)
 Number     Number      Type              X           Y           Z
 ---------------------------------------------------------------------
    1          1             0        2.080447    0.722417    0.000000
    2          6             0        1.096394    0.302400    0.000000
    3          1             0        1.255542   -1.879784    0.000000
    4          6             0        0.662812   -0.989701    0.000000
    5          1             0       -1.474873   -1.658768    0.000000
    6          6             0       -0.745544   -0.874478    0.000000
    7          7             0       -1.127859    0.370571    0.000000
    8          1             0       -0.048078    2.066660    0.000000
    9          7             0        0.000000    1.075164    0.000000
 ---------------------------------------------------------------------

 SCF Done:  E(RHF) =  -224.793493484     A.U. after    1 cycles

  The electronic state is 1-A'.
 Alpha  occ. eigenvalues --  -15.63738 -15.58018 -11.27041 -11.24315 -11.21435
 Alpha  occ. eigenvalues --   -1.38498  -1.10179  -1.05102  -0.82290  -0.80285
 Alpha  occ. eigenvalues --   -0.74291  -0.61179  -0.60882  -0.59087  -0.55967
 Alpha  occ. eigenvalues --   -0.45019  -0.36060  -0.34245
 Alpha virt. eigenvalues --    0.18557   0.22826   0.25009   0.28497   0.30649
 Alpha virt. eigenvalues --    0.31821   0.41165   0.41871   0.46035   0.58150
 Alpha virt. eigenvalues --    0.66698   0.73946   0.77229   0.78635   0.82554

  Exact polarizability:  42.603   1.749  45.889   0.000   0.000  16.813
 Approx polarizability:  41.912   0.731  45.086   0.000   0.000  18.714

                     1                      2                      3
                    A"                     A"                     A"
 Frequencies --   552.1434               690.6243               748.8097
 Red. masses --     1.6491                 2.3592                 2.9339
 Frc consts  --     0.2962                 0.6630                 0.9693
 IR Inten    --    92.0089                 0.0523                25.9127
 Raman Activ --     1.1486                 0.2137                 0.2208

                     4                      5                      6
                    A"                     A"                     A'
 Frequencies --   855.0413               983.5442               999.2901
 Red. masses --     1.1858                 1.2688                 5.7689
 Frc consts  --     0.5108                 0.7232                 3.3941
 IR Inten    --    92.8223                 2.6869                13.8953
 Raman Activ --     0.7314                 0.4221                 4.1761

                     7                      8                      9
                    A'                     A"                     A'
 Frequencies --  1018.4939              1023.5052              1134.8592
 Red. masses --     4.3894                 1.3768                 1.5358
 Frc consts  --     2.6827                 0.8498                 1.1654
 IR Inten    --     6.9763                 2.6448                 0.2074
 Raman Activ --     1.4981                 1.7238                 0.9639

                    10                     11                     12
                    A'                     A'                     A'
 Frequencies --  1145.3709              1234.2479              1285.7151
 Red. masses --     1.7086                 1.9346                 2.5810
 Frc consts  --     1.3207                 1.7364                 2.5138
 IR Inten    --    52.1926                26.6569                 3.2228
 Raman Activ --     1.8855                 7.2365                19.0323

                    13                     14                     15
                    A'                     A'                     A'
 Frequencies --  1410.4454              1547.9165              1550.9443
 Red. masses --     1.6200                 2.6245                 3.3529
 Frc consts  --     1.8988                 3.7051                 4.7519
 IR Inten    --     3.4262                 4.7204                29.7688
 Raman Activ --     8.3516                11.0540                32.9822

                    16                     17                     18
                    A'                     A'                     A'
 Frequencies --  1641.1797              1750.1604              3433.7069
 Red. masses --     2.5250                 3.1049                 1.0937
 Frc consts  --     4.0071                 5.6035                 7.5978
 IR Inten    --    12.9628                11.4156                 8.0316
 Raman Activ --     2.2834                 1.0291                95.4041

                    19                     20                     21
                    A'                     A'                     A'
 Frequencies --  3446.8026              3465.4162              3931.4714
 Red. masses --     1.0959                 1.1083                 1.0829
 Frc consts  --     7.6708                 7.8418                 9.8614
 IR Inten    --     7.6759                 1.5379               105.0931
 Raman Activ --    27.6835               120.4306                80.0716

 - Thermochemistry -
 -------------------
 Temperature   298.150 Kelvin.  Pressure   1.00000 Atm.
 Atom  1 has atomic number  1 and mass   1.00783

 Molecular mass:    68.03745 amu.
 Principal axes and moments of inertia in atomic units:
                           1         2         3
     EIGENVALUES --   182.66672 187.19586 369.86258
           X            0.94202   0.33555   0.00000
           Y           -0.33555   0.94202   0.00000
           Z            0.00000   0.00000   1.00000
 THIS MOLECULE IS AN ASYMMETRIC TOP.
 ROTATIONAL SYMMETRY NUMBER  1.
 ROTATIONAL TEMPERATURES (KELVIN)      0.47416     0.46269     0.23418
 ROTATIONAL CONSTANTS (GHZ)            9.87997     9.64092     4.87949
 Zero-point vibrational energy     202466.1 (Joules/Mol)
                                   48.39057 (Kcal/Mol)
 WARNING-- EXPLICIT CONSIDERATION OF   1 DEGREES OF FREEDOM AS
           VIBRATIONS MAY CAUSE SIGNIFICANT ERROR
 VIBRATIONAL TEMPERATURES:    794.41   993.65  1077.36  1230.21  1415.09
          (KELVIN)           1437.75  1465.38  1472.59  1632.80  1647.92
                             1775.80  1849.85  2029.30  2227.09  2231.45
                             2361.28  2518.08  4940.31  4959.15  4985.93
                             5656.48

 Zero-point correction=                           0.077115 (Hartree/Particle)
 Thermal correction to Energy=                    0.080644
 Thermal correction to Enthalpy=                  0.081588
 Thermal correction to Gibbs Free Energy=         0.050950
 Sum of electronic and zero-point Energies=           -224.716378
 Sum of electronic and thermal Energies=              -224.712850
 Sum of electronic and thermal Enthalpies=            -224.711905
 Sum of electronic and thermal Free Energies=         -224.742543

                     E (Thermal)             CV                S
                      KCAL/MOL        CAL/MOL-KELVIN    CAL/MOL-KELVIN
 TOTAL                   50.605             11.868             64.482
 ELECTRONIC               0.000              0.000              0.000
 TRANSLATIONAL            0.889              2.981             38.570
 ROTATIONAL               0.889              2.981             24.051
 VIBRATIONAL             48.827              5.906              1.860
 VIBRATION  1             0.907              1.135              0.540
                       Q            LOG10(Q)             LN(Q)
 TOTAL BOT       0.366923D-23        -23.435425        -53.962061
 TOTAL V=0       0.108367D+13         12.034898         27.711377
 VIB (BOT)       0.413185D-35        -35.383855        -81.474337
 VIB (BOT)  1    0.283641D+00         -0.547231         -1.260046
 VIB (V=0)       0.122030D+01          0.086468          0.199101
 VIB (V=0)  1    0.107485D+01          0.031348          0.072181
 ELECTRONIC      0.100000D+01          0.000000          0.000000
 TRANSLATIONAL   0.220588D+08          7.343582         16.909224
 ROTATIONAL      0.402576D+05          4.604847         10.603053
 ***** Axes restored to original set *****
 -------------------------------------------------------------------
 Center     Atomic                   Forces (Hartrees/Bohr)
 Number     Number              X              Y              Z
 -------------------------------------------------------------------
    1          1           0.000013240    0.000000000   -0.000000282
    2          6          -0.000320348    0.000000000    0.000186797
    3          1          -0.000007330    0.000000000    0.000092606
    4          6          -0.000003690    0.000000000    0.000117261
    5          1          -0.000001716    0.000000000    0.000030407
    6          6           0.000285102    0.000000000    0.000066654
    7          7           0.000073747    0.000000000   -0.000141181
    8          1           0.000026448    0.000000000    0.000016038
    9          7          -0.000065454    0.000000000   -0.000368300
 -------------------------------------------------------------------
 Cartesian Forces:  Max     0.000368300 RMS     0.000123677

 GradGradGradGradGradGradGradGradGradGradGradGradGradGradGradGradGradGrad
 Berny optimization.
 Internal  Forces:  Max     0.000288919 RMS     0.000092709
 Search for a local minimum.
 Step number   1 out of a maximum of  48
 All quantities printed in internal units (Hartrees-Bohrs-Radians)
 Second derivative matrix not updated -- analytic derivatives used.
     Eigenvalues ---    0.00797   0.01458   0.02095   0.03425   0.06685
     Eigenvalues ---    0.07253   0.11099   0.12352   0.13078   0.14027
     Eigenvalues ---    0.25889   0.29370   0.39759   0.41409   0.41853
     Eigenvalues ---    0.42096   0.47390   0.48511   0.54906   0.58436
     Eigenvalues ---    0.682951000.000001000.000001000.000001000.00000
     Eigenvalues --- 1000.000001000.000001000.000001000.000001000.00000
     Eigenvalues --- 1000.000001000.000001000.000001000.000001000.00000
     Eigenvalues --- 1000.000001000.000001000.00000
 Angle between quadratic step and forces=  26.26 degrees.
 Linear search not attempted -- first point.
 Iteration  1 RMS(Cart)=  0.00025582 RMS(Int)=  0.00000004
 Iteration  2 RMS(Cart)=  0.00000004 RMS(Int)=  0.00000001
 Variable       Old X    -DE/DX   Delta X   Delta X   Delta X     New X
                                 (Linear)    (Quad)   (Total)
    R1        2.02190  -0.00001   0.00000  -0.00005  -0.00005   2.02184
    R2        2.57552   0.00016   0.00000   0.00029   0.00029   2.57581
    R3        2.53480  -0.00029   0.00000  -0.00051  -0.00051   2.53430
    R4        2.02084  -0.00009   0.00000  -0.00018  -0.00018   2.02065
    R5        2.67030   0.00004   0.00000   0.00003   0.00003   2.67033
    R6        2.02389   0.00000   0.00000  -0.00003  -0.00003   2.02386
    R7        2.46123  -0.00013   0.00000  -0.00007  -0.00007   2.46115
    R8        2.51306   0.00015   0.00000   0.00014   0.00014   2.51321
    R9        1.87586  -0.00001   0.00000  -0.00001  -0.00001   1.87585
    A1        2.29797   0.00007   0.00000   0.00006   0.00006   2.29802
    A2        2.12422   0.00008   0.00000   0.00037   0.00037   2.12459
    A3        1.86100  -0.00015   0.00000  -0.00042  -0.00042   1.86057
    A4        2.23035  -0.00007   0.00000  -0.00013  -0.00013   2.23022
    A5        1.81292   0.00018   0.00000   0.00050   0.00050   1.81342
    A6        2.23992  -0.00011   0.00000  -0.00037  -0.00037   2.23955
    A7        2.23827   0.00014   0.00000   0.00051   0.00051   2.23878
    A8        1.95036  -0.00021   0.00000  -0.00055  -0.00055   1.94980
    A9        2.09456   0.00008   0.00000   0.00004   0.00004   2.09460
   A10        1.83126   0.00011   0.00000   0.00024   0.00024   1.83150
   A11        1.96924   0.00007   0.00000   0.00024   0.00024   1.96948
   A12        2.23320  -0.00001   0.00000   0.00020   0.00020   2.23340
   A13        2.08074  -0.00006   0.00000  -0.00044  -0.00044   2.08030
    D1        0.00000   0.00000   0.00000   0.00000   0.00000   0.00000
    D2        3.14159   0.00000   0.00000   0.00000   0.00000   3.14159
    D3        3.14159   0.00000   0.00000   0.00000   0.00000   3.14159
    D4        0.00000   0.00000   0.00000   0.00000   0.00000   0.00000
    D5        3.14159   0.00000   0.00000   0.00000   0.00000   3.14159
    D6        0.00000   0.00000   0.00000   0.00000   0.00000   0.00000
    D7        0.00000   0.00000   0.00000   0.00000   0.00000   0.00000
    D8       -3.14159   0.00000   0.00000   0.00000   0.00000  -3.14159
    D9        3.14159   0.00000   0.00000   0.00000   0.00000   3.14159
   D10        0.00000   0.00000   0.00000   0.00000   0.00000   0.00000
   D11        0.00000   0.00000   0.00000   0.00000   0.00000   0.00000
   D12        3.14159   0.00000   0.00000   0.00000   0.00000   3.14159
   D13        0.00000   0.00000   0.00000   0.00000   0.00000   0.00000
   D14        3.14159   0.00000   0.00000   0.00000   0.00000   3.14159
   D15        0.00000   0.00000   0.00000   0.00000   0.00000   0.00000
   D16        3.14159   0.00000   0.00000   0.00000   0.00000   3.14159
         Item               Value     Threshold  Converged?
 Maximum Force            0.000289     0.000450     YES
 RMS     Force            0.000093     0.000300     YES
 Maximum Displacement     0.000623     0.001800     YES
 RMS     Displacement     0.000256     0.001200     YES
 Predicted change in Energy=-3.659477D-07
 Optimization completed.
    -- Stationary point found.
                         ----------------------------
                         !   Optimized Parameters   !
                         ! (Angstroms and Degrees)  !
 ------------------------                            -------------------------
 ! Name  Definition              Value          Derivative Info.             !
 -----------------------------------------------------------------------------
 ! R1    R(1,2)                  1.0699         -DE/DX =    0.               !
 ! R2    R(2,4)                  1.3629         -DE/DX =    0.0002           !
 ! R3    R(2,9)                  1.3414         -DE/DX =   -0.0003           !
 ! R4    R(3,4)                  1.0694         -DE/DX =   -0.0001           !
 ! R5    R(4,6)                  1.4131         -DE/DX =    0.               !
 ! R6    R(5,6)                  1.071          -DE/DX =    0.               !
 ! R7    R(6,7)                  1.3024         -DE/DX =   -0.0001           !
 ! R8    R(7,9)                  1.3299         -DE/DX =    0.0001           !
 ! R9    R(8,9)                  0.9927         -DE/DX =    0.               !
 ! A1    A(1,2,4)              131.6638         -DE/DX =    0.0001           !
 ! A2    A(1,2,9)              121.709          -DE/DX =    0.0001           !
 ! A3    A(4,2,9)              106.6272         -DE/DX =   -0.0001           !
 ! A4    A(2,4,3)              127.7895         -DE/DX =   -0.0001           !
 ! A5    A(2,4,6)              103.8727         -DE/DX =    0.0002           !
 ! A6    A(3,4,6)              128.3378         -DE/DX =   -0.0001           !
 ! A7    A(4,6,5)              128.2433         -DE/DX =    0.0001           !
 ! A8    A(4,6,7)              111.7472         -DE/DX =   -0.0002           !
 ! A9    A(5,6,7)              120.0095         -DE/DX =    0.0001           !
 ! A10   A(6,7,9)              104.9237         -DE/DX =    0.0001           !
 ! A11   A(2,9,7)              112.8292         -DE/DX =    0.0001           !
 ! A12   A(2,9,8)              127.9532         -DE/DX =    0.               !
 ! A13   A(7,9,8)              119.2176         -DE/DX =   -0.0001           !
 ! D1    D(1,2,4,3)              0.             -DE/DX =    0.               !
 ! D2    D(1,2,4,6)            180.             -DE/DX =    0.               !
 ! D3    D(9,2,4,3)            180.             -DE/DX =    0.               !
 ! D4    D(9,2,4,6)              0.             -DE/DX =    0.               !
 ! D5    D(1,2,9,7)            180.             -DE/DX =    0.               !
 ! D6    D(1,2,9,8)              0.             -DE/DX =    0.               !
 ! D7    D(4,2,9,7)              0.             -DE/DX =    0.               !
 ! D8    D(4,2,9,8)           -180.             -DE/DX =    0.               !
 ! D9    D(2,4,6,5)            180.             -DE/DX =    0.               !
 ! D10   D(2,4,6,7)              0.             -DE/DX =    0.               !
 ! D11   D(3,4,6,5)              0.             -DE/DX =    0.               !
 ! D12   D(3,4,6,7)            180.             -DE/DX =    0.               !
 ! D13   D(4,6,7,9)              0.             -DE/DX =    0.               !
 ! D14   D(5,6,7,9)            180.             -DE/DX =    0.               !
 ! D15   D(6,7,9,2)              0.             -DE/DX =    0.               !
 ! D16   D(6,7,9,8)            180.             -DE/DX =    0.               !
 -----------------------------------------------------------------------------
 GradGradGradGradGradGradGradGradGradGradGradGradGradGradGradGradGradGrad

 1\1\GINC-QCHEM4\Freq\RHF\6-31G(d)\C3H4N2\RDJ3\04-Nov-1998\0\\#N GEOM=A
 LLCHECK GUESS=TCHECK RHF/6-31G(D) FREQ\\1H pyrazole C3H4N2 casno=28813
 1\\0,1\H,-1.872799343,0.,-1.1587789398\C,-0.9261932197,0.,-0.660070346
 7\H,0.666806282,0.,-2.1599403828\C,0.3499528555,0.,-1.1385784444\H,2.2
 174545967,0.,0.0982668056\C,1.1488341703,0.,0.0269831556\N,0.423812244
 3,0.,1.1089506629\H,-1.5734066325,0.,1.3408155422\N,-0.8343290643,0.,0
 .6781394496\\Version=x86-Linux-G98RevA.4\State=1-A'\HF=-224.7934935\RM
 SD=2.069e-09\RMSF=1.237e-04\Dipole=-0.8114659,0.,-0.5017689\DipoleDeri
 v=-0.0207756,0.,-0.0521635,0.,0.1763018,0.,-0.0409293,0.,0.0760254,0.3
 009729,0.,-0.1095682,0.,-0.0092965,0.,-0.3761815,0.,0.3115647,0.087323
 5,0.,0.0323752,0.,0.184475,0.,0.0391926,0.,-0.0450291,-0.4248047,0.,-0
 .0362993,0.,-0.288221,0.,-0.0769991,0.,0.0153222,-0.0779818,0.,-0.0141
 926,0.,0.1355389,0.,-0.0336135,0.,0.0731176,0.3495467,0.,0.158922,0.,-
 0.001852,0.,0.2757058,0.,0.2433951,0.02003,0.,-0.2996698,0.,-0.261879,
 0.,-0.0930689,0.,-0.6705719,0.2318179,0.,-0.0557081,0.,0.3561844,0.,-0
 .0445161,0.,0.2426116,-0.4661289,0.,0.3763043,0.,-0.2912516,0.,0.35041
 ,0.,-0.2464355\Polar=46.294058,0.,16.8133083,-1.2510287,0.,42.197645\P
 olarDeriv=-7.4050917,0.,-0.3463975,-2.9894291,0.,-1.7124053,0.,-0.8399
 153,0.,0.,-0.603076,0.,-2.6529042,0.,-0.2714418,-2.5167065,0.,-2.31317
 11,-2.0704965,0.,-0.5000457,-2.4652171,0.,-3.8281897,0.,-4.4994681,0.,
 0.,-0.7215999,0.,-1.0547722,0.,0.0379029,2.9186321,0.,0.3758084,1.3969
 006,0.,0.0892845,-1.8526298,0.,1.6385561,0.,0.0329373,0.,0.,-1.1753082
 ,0.,-1.0422079,0.,-0.3758266,2.1809664,0.,-8.5074151,2.2400649,0.,0.06
 50261,5.4147819,0.,3.9561141,0.,2.867352,0.,0.,-3.2086782,0.,-2.307469
 2,0.,0.0281765,2.0976242,0.,1.3262939,10.0676983,0.,0.4371378,0.686690
 9,0.,0.6244669,0.,1.5104716,0.,0.,0.3157345,0.,0.4352856,0.,0.0080554,
 1.4761334,0.,0.0777215,-0.5422505,0.,0.2064294,-1.9266377,0.,1.4511362
 ,0.,2.6300827,0.,0.,-0.5342409,0.,0.8569959,0.,0.1782466,-5.9159516,0.
 ,-6.7467654,2.3010781,0.,-0.2382831,-1.1413993,0.,-1.4810183,0.,0.3857
 447,0.,0.,3.7784681,0.,1.861273,0.,0.2925091,4.5859684,0.,13.0184092,-
 4.8569062,0.,-0.0348293,3.2625759,0.,-2.7190991,0.,-0.7562701,0.,0.,0.
 6064554,0.,2.6698569,0.,0.0993062,-3.0573591,0.,4.1183998,-1.130997,0.
 ,0.321678,1.0112644,0.,2.0704391,0.,-1.3309348,0.,0.,1.5422453,0.,1.23
 39422,0.,0.0030716,-1.7693073,0.,-1.3492811\HyperPolar=-17.487538,0.,-
 0.432051,0.,11.0045341,0.,-4.2554725,0.4104101,0.,-41.720083\PG=CS [SG
 (C3H4N2)]\NImag=0\\0.33976971,0.,0.02806119,0.14783394,0.,0.14027078,-
 0.33515613,0.,-0.12435469,0.99516867,0.,-0.03850700,0.,0.,0.15707038,-
 0.13570694,0.,-0.13981399,0.11005290,0.,0.74704448,0.00033493,0.,-0.00
 104159,0.00341796,0.,0.03054372,0.08911873,0.,-0.00368873,0.,0.,-0.001
 01762,0.,0.,0.02658737,0.00074284,0.,-0.00023307,-0.00248560,0.,0.0004
 8552,-0.10283801,0.,0.38614324,-0.00820825,0.,0.00982687,-0.40483280,0
 .,0.07195718,-0.09987009,0.,0.09420093,0.71224337,0.,0.00423708,0.,0.,
 -0.08048742,0.,0.,-0.03272450,0.,0.,0.14184677,-0.01751784,0.,0.016179
 48,0.11870105,0.,-0.17802273,0.09191091,0.,-0.37220767,-0.15025237,0.,
 0.93713993,-0.00028444,0.,0.00032760,-0.00109742,0.,-0.00160110,-0.000
 20810,0.,-0.00072246,-0.00506533,0.,0.00376040,0.41355389,0.,0.0007111
 7,0.,0.,0.00500558,0.,0.,-0.00199007,0.,0.,0.00271713,0.,0.,0.03155956
 ,-0.00126501,0.,0.00126871,-0.00358811,0.,-0.00724821,0.00113938,0.,0.
 00004390,-0.02488227,0.,0.00945915,0.02292970,0.,0.06692682,-0.0054574
 9,0.,0.00520185,-0.06007905,0.,0.00088735,0.01704080,0.,0.01364125,-0.
 20489307,0.,-0.10656551,-0.39087304,0.,-0.03711966,1.02036540,0.,0.006
 54219,0.,0.,0.01330047,0.,0.,-0.00284980,0.,0.,-0.08099507,0.,0.,-0.04
 209095,0.,0.,0.17689396,0.00163291,0.,-0.00203001,-0.08768623,0.,0.062
 42265,-0.01719385,0.,-0.00973963,-0.05565148,0.,-0.25302429,-0.0265562
 5,0.,-0.07563522,-0.05098797,0.,0.72133894,0.00068435,0.,0.00151282,-0
 .07121899,0.,-0.04832705,-0.00270136,0.,-0.00168021,0.04480561,0.,0.05
 246576,-0.01509411,0.,0.03401030,-0.23303168,0.,0.17359568,0.60205006,
 0.,0.00753986,0.,0.,0.01830528,0.,0.,0.00690920,0.,0.,0.02629879,0.,0.
 ,-0.00800181,0.,0.,-0.08798055,0.,0.,0.12411695,0.00217572,0.,-0.00665
 508,-0.01725130,0.,-0.08757346,-0.00737411,0.,-0.00500460,-0.04632486,
 0.,-0.08812704,-0.00103992,0.,0.00928184,0.15171192,0.,-0.39601502,-0.
 07386414,0.,0.70218936,-0.00029395,0.,0.00058451,0.01324340,0.,-0.0033
 7567,0.00088198,0.,-0.00009857,0.00324491,0.,-0.00362593,-0.00053191,0
 .,0.00164296,-0.00856646,0.,-0.00728219,-0.02106481,0.,0.03008089,0.33
 920067,0.,-0.00200911,0.,0.,-0.00916559,0.,0.,0.00276603,0.,0.,0.00352
 842,0.,0.,0.00244025,0.,0.,0.00487284,0.,0.,-0.01447562,0.,0.,0.013762
 55,-0.00098818,0.,0.00006619,0.02935479,0.,-0.00554785,0.00140314,0.,0
 .00018317,-0.00287578,0.,-0.00812023,-0.00064569,0.,0.00112537,-0.0070
 7838,0.,0.00123722,-0.01154885,0.,0.02087511,-0.23318297,0.,0.28955969
 ,0.00861125,0.,-0.03989132,-0.13944564,0.,-0.02443039,-0.00801487,0.,-
 0.00076018,-0.03742437,0.,0.01112353,-0.00039954,0.,0.00713272,-0.1345
 0541,0.,0.07012939,-0.30442906,0.,-0.03811419,-0.32611384,0.,0.2255619
 2,0.94172147,0.,-0.00288665,0.,0.,-0.06450408,0.,0.,0.00600813,0.,0.,0
 .01557880,0.,0.,0.00964913,0.,0.,0.01230690,0.,0.,-0.07271209,0.,0.,-0
 .00171978,0.,0.,0.09827965,0.00309256,0.,-0.00905301,-0.02274282,0.,-0
 .39174641,0.00345041,0.,0.00032914,0.10400179,0.,-0.06327660,0.0035477
 2,0.,-0.00522237,0.03030916,0.,-0.04855465,-0.12616430,0.,-0.14897112,
 0.21525696,0.,-0.29937867,-0.21075147,0.,0.96587368\\-0.00001324,0.,0.
 00000028,0.00032035,0.,-0.00018680,0.00000733,0.,-0.00009261,0.0000036
 9,0.,-0.00011726,0.00000172,0.,-0.00003041,-0.00028510,0.,-0.00006665,
 -0.00007375,0.,0.00014118,-0.00002645,0.,-0.00001604,0.00006545,0.,0.0
 0036830\\\@

 Luck is a matter of preparation meeting opportunity.
                                    -- Oprah Winfrey
 Job cpu time:  0 days  0 hours  9 minutes  0.1 seconds.
 File lengths (MBytes):  RWF=   14 Int=    0 D2E=    0 Chk=    3 Scr=    1
 Normal termination of Gaussian 98.
