 Gaussian 98, Revision A.6,
 Gaussian 98:  IBM-RS6000-G98RevA.6 19-Oct-1998

 --------------------
 #HF/CEP-31G opt freq
 --------------------

 -------------------------------
 1H pyrazole C3H4N2 casno=288131
 -------------------------------
 Symbolic Z-matrix:
 Charge =  0 Multiplicity = 1

 SCF Done:  E(RHF) =  -37.9264633586     A.U. after   14 cycles
 SCF Done:  E(RHF) =  -37.9933060255     A.U. after   14 cycles
 SCF Done:  E(RHF) =  -38.0072488880     A.U. after   14 cycles
 SCF Done:  E(RHF) =  -38.0076100712     A.U. after   12 cycles
 SCF Done:  E(RHF) =  -38.0076916093     A.U. after   12 cycles
 SCF Done:  E(RHF) =  -38.0076981054     A.U. after    9 cycles
 SCF Done:  E(RHF) =  -38.0076989777     A.U. after   10 cycles
 Optimization completed.
    -- Stationary point found.
 Normal termination of Gaussian 98.

 ----------------------------------------------
 #N Geom=AllCheck Guess=TCheck RHF/CEP-31G Freq
 ----------------------------------------------

 1H pyrazole C3H4N2 casno=288131
 -------------------------------
 Redundant internal coordinates taken from checkpointfile:
 /wrk/rdj3/Gau-15364.chk
 Charge =  0 Multiplicity = 1

                         Standard orientation:
 ---------------------------------------------------------------------
 Center     Atomic     Atomic              Coordinates (Angstroms)
 Number     Number      Type              X           Y           Z
 ---------------------------------------------------------------------
    1          1             0        2.104513    0.699881    0.000000
    2          6             0        1.112743    0.295910    0.000000
    3          1             0        1.247792   -1.911916    0.000000
    4          6             0        0.660131   -1.018001    0.000000
    5          1             0       -1.506771   -1.684666    0.000000
    6          6             0       -0.774069   -0.903428    0.000000
    7          7             0       -1.159589    0.369766    0.000000
    8          1             0       -0.042810    2.086479    0.000000
    9          7             0        0.000000    1.092693    0.000000
 ---------------------------------------------------------------------

 SCF Done:  E(RHF) =  -38.0076989777     A.U. after    1 cycles

  The electronic state is 1-A'.
 Alpha  occ. eigenvalues --   -1.39500  -1.12124  -1.06362  -0.83438  -0.80853
 Alpha  occ. eigenvalues --   -0.74776  -0.61918  -0.60555  -0.59410  -0.56915
 Alpha  occ. eigenvalues --   -0.44868  -0.37121  -0.34723
 Alpha virt. eigenvalues --    0.14826   0.20869   0.22549   0.26899   0.28015
 Alpha virt. eigenvalues --    0.31264   0.31728   0.38224   0.39110   0.39971
 Alpha virt. eigenvalues --    0.46190   0.47487   0.51005   0.52948   0.55865

  Exact polarizability:  44.398   2.035  47.486   0.000   0.000  19.583
 Approx polarizability:  42.596   1.210  46.047   0.000   0.000  17.748

                     1                      2                      3
                    A"                     A"                     A"
 Frequencies --   662.6899               708.1737               742.8686
 Red. masses --     3.5252                 2.9427                 1.2649
 Frc consts  --     0.9121                 0.8695                 0.4113
 IR Inten    --    44.2766                11.7194               142.6950
 Raman Activ --     1.3377                 0.0112                 0.1574

                     4                      5                      6
                    A"                     A'                     A'
 Frequencies --   889.8028               999.3798              1005.9435
 Red. masses --     1.2002                 5.5127                 5.1069
 Frc consts  --     0.5599                 3.2440                 3.0448
 IR Inten    --   122.4780                16.2116                 3.5059
 Raman Activ --     2.8987                 6.5863                 5.6721

                     7                      8                      9
                    A"                     A"                     A'
 Frequencies --  1008.6020              1051.5600              1118.8078
 Red. masses --     1.2807                 1.4157                 1.8915
 Frc consts  --     0.7676                 0.9223                 1.3950
 IR Inten    --     5.3060                 0.0732                62.3060
 Raman Activ --     5.8313                 3.4749                 2.1041

                    10                     11                     12
                    A'                     A'                     A'
 Frequencies --  1141.3894              1213.6388              1258.1208
 Red. masses --     1.5377                 2.2741                 2.1522
 Frc consts  --     1.1803                 1.9736                 2.0071
 IR Inten    --     2.2741                28.9648                 0.5030
 Raman Activ --     2.4762                13.0152                22.6905

                    13                     14                     15
                    A'                     A'                     A'
 Frequencies --  1387.6963              1516.5531              1539.0971
 Red. masses --     1.6763                 2.4921                 3.0962
 Frc consts  --     1.9019                 3.3771                 4.3213
 IR Inten    --     2.6090                 2.8069                21.9502
 Raman Activ --     9.5223                14.5323                43.6263

                    16                     17                     18
                    A'                     A'                     A'
 Frequencies --  1594.6927              1706.4305              3470.5265
 Red. masses --     2.3843                 2.7348                 1.0931
 Frc consts  --     3.5724                 4.6919                 7.7570
 IR Inten    --    21.8196                14.2764                 2.1111
 Raman Activ --     4.4758                 2.9786                81.8376

                    19                     20                     21
                    A'                     A'                     A'
 Frequencies --  3480.1292              3500.3355              3972.1265
 Red. masses --     1.1007                 1.1115                 1.0843
 Frc consts  --     7.8541                 8.0238                10.0793
 IR Inten    --    13.4074                 3.1661               113.5326
 Raman Activ --    11.5508               126.5641                82.0418

 - Thermochemistry -
 -------------------
 Temperature   298.150 Kelvin.  Pressure   1.00000 Atm.
 Atom  1 has atomic number  1 and mass   1.00783

 Molecular mass:    68.03745 amu.
 Principal axes and moments of inertia in atomic units:
                           1         2         3
     EIGENVALUES --   190.37855 194.16272 384.54128
           X            0.98647   0.16396   0.00000
           Y           -0.16396   0.98647   0.00000
           Z            0.00000   0.00000   1.00000
 THIS MOLECULE IS AN ASYMMETRIC TOP.
 ROTATIONAL SYMMETRY NUMBER  1.
 ROTATIONAL TEMPERATURES (KELVIN)      0.45495     0.44609     0.22524
 ROTATIONAL CONSTANTS (GHZ)            9.47975     9.29499     4.69323
 Zero-point vibrational energy     203177.2 (Joules/Mol)
                                   48.56051 (Kcal/Mol)
 VIBRATIONAL TEMPERATURES:    953.46  1018.90  1068.82  1280.22  1437.88
          (KELVIN)           1447.32  1451.14  1512.95  1609.71  1642.20
                             1746.15  1810.14  1996.57  2181.97  2214.40
                             2294.39  2455.16  4993.28  5007.10  5036.17
                             5714.97

 Zero-point correction=                           0.077386 (Hartree/Particle)
 Thermal correction to Energy=                    0.080843
 Thermal correction to Enthalpy=                  0.081788
 Thermal correction to Gibbs Free Energy=         0.051199
 Sum of electronic and zero-point Energies=            -37.930313
 Sum of electronic and thermal Energies=               -37.926855
 Sum of electronic and thermal Enthalpies=             -37.925911
 Sum of electronic and thermal Free Energies=          -37.956500

                     E (Thermal)             CV                S
                      KCAL/MOL        CAL/MOL-KELVIN    CAL/MOL-KELVIN
 TOTAL                   50.730             11.594             64.378
 ELECTRONIC               0.000              0.000              0.000
 TRANSLATIONAL            0.889              2.981             38.570
 ROTATIONAL               0.889              2.981             24.167
 VIBRATIONAL             48.953              5.633              1.641
                       Q            LOG10(Q)             LN(Q)
 TOTAL BOT       0.281871D-23        -23.549950        -54.225764
 TOTAL V=0       0.110902D+13         12.044941         27.734501
 VIB (BOT)       0.299402D-35        -35.523745        -81.796446
 VIB (V=0)       0.117800D+01          0.071146          0.163819
 ELECTRONIC      0.100000D+01          0.000000          0.000000
 TRANSLATIONAL   0.220588D+08          7.343582         16.909224
 ROTATIONAL      0.426789D+05          4.630213         10.661459
 ***** Axes restored to original set *****
 -------------------------------------------------------------------
 Center     Atomic                   Forces (Hartrees/Bohr)
 Number     Number              X              Y              Z
 -------------------------------------------------------------------
    1          1           0.000032293    0.000000000   -0.000006389
    2          6           0.000014872    0.000000000    0.000277397
    3          1          -0.000007214    0.000000000   -0.000004590
    4          6           0.000201203    0.000000000   -0.000095305
    5          1          -0.000007003    0.000000000   -0.000033043
    6          6           0.000059592    0.000000000   -0.000189521
    7          7          -0.000196021    0.000000000    0.000037036
    8          1          -0.000015452    0.000000000   -0.000023077
    9          7          -0.000082270    0.000000000    0.000037492
 -------------------------------------------------------------------
 Cartesian Forces:  Max     0.000277397 RMS     0.000089700

 GradGradGradGradGradGradGradGradGradGradGradGradGradGradGradGradGradGrad
 Berny optimization.
 Internal  Forces:  Max     0.000213288 RMS     0.000065525
 Search for a local minimum.
 Step number   1 out of a maximum of  48
 All quantities printed in internal units (Hartrees-Bohrs-Radians)
 Second derivative matrix not updated -- analytic derivatives used.
     Eigenvalues ---    0.01243   0.01622   0.02284   0.03551   0.06664
     Eigenvalues ---    0.07370   0.11107   0.12167   0.12783   0.13950
     Eigenvalues ---    0.26686   0.29718   0.38116   0.42206   0.42394
     Eigenvalues ---    0.42605   0.45188   0.47202   0.55887   0.57408
     Eigenvalues ---    0.640411000.000001000.000001000.000001000.00000
     Eigenvalues --- 1000.000001000.000001000.000001000.000001000.00000
     Eigenvalues --- 1000.000001000.000001000.000001000.000001000.00000
     Eigenvalues --- 1000.000001000.000001000.00000
 Angle between quadratic step and forces=  26.94 degrees.
 Linear search not attempted -- first point.
 Iteration  1 RMS(Cart)=  0.00018179 RMS(Int)=  0.00000002
 Iteration  2 RMS(Cart)=  0.00000002 RMS(Int)=  0.00000001
 Variable       Old X    -DE/DX   Delta X   Delta X   Delta X     New X
                                 (Linear)    (Quad)   (Total)
    R1        2.02368  -0.00003   0.00000  -0.00004  -0.00004   2.02365
    R2        2.62612   0.00014   0.00000   0.00028   0.00028   2.62640
    R3        2.58628  -0.00010   0.00000  -0.00035  -0.00035   2.58592
    R4        2.02159   0.00000   0.00000  -0.00001  -0.00001   2.02158
    R5        2.71888  -0.00013   0.00000  -0.00028  -0.00028   2.71860
    R6        2.02403  -0.00001   0.00000  -0.00003  -0.00003   2.02400
    R7        2.51387   0.00021   0.00000   0.00038   0.00038   2.51424
    R8        2.58227  -0.00007   0.00000  -0.00013  -0.00013   2.58215
    R9        1.87972   0.00000   0.00000  -0.00001  -0.00001   1.87971
    A1        2.28935  -0.00009   0.00000  -0.00044  -0.00044   2.28890
    A2        2.13337  -0.00005   0.00000   0.00010   0.00010   2.13347
    A3        1.86047   0.00014   0.00000   0.00035   0.00035   1.86081
    A4        2.22829   0.00003   0.00000  -0.00004  -0.00004   2.22824
    A5        1.82282  -0.00008   0.00000  -0.00025  -0.00025   1.82257
    A6        2.23208   0.00005   0.00000   0.00029   0.00029   2.23237
    A7        2.24443  -0.00002   0.00000  -0.00012  -0.00012   2.24431
    A8        1.94454  -0.00002   0.00000   0.00002   0.00002   1.94455
    A9        2.09422   0.00005   0.00000   0.00010   0.00010   2.09433
   A10        1.83425   0.00007   0.00000   0.00008   0.00008   1.83433
   A11        1.96270  -0.00010   0.00000  -0.00019  -0.00019   1.96251
   A12        2.23527   0.00002   0.00000  -0.00007  -0.00007   2.23520
   A13        2.08522   0.00008   0.00000   0.00026   0.00026   2.08548
    D1        0.00000   0.00000   0.00000   0.00000   0.00000   0.00000
    D2        3.14159   0.00000   0.00000   0.00000   0.00000   3.14159
    D3        3.14159   0.00000   0.00000   0.00000   0.00000   3.14159
    D4        0.00000   0.00000   0.00000   0.00000   0.00000   0.00000
    D5        3.14159   0.00000   0.00000   0.00000   0.00000   3.14159
    D6        0.00000   0.00000   0.00000   0.00000   0.00000   0.00000
    D7        0.00000   0.00000   0.00000   0.00000   0.00000   0.00000
    D8        3.14159   0.00000   0.00000   0.00000   0.00000   3.14159
    D9        3.14159   0.00000   0.00000   0.00000   0.00000   3.14159
   D10        0.00000   0.00000   0.00000   0.00000   0.00000   0.00000
   D11        0.00000   0.00000   0.00000   0.00000   0.00000   0.00000
   D12        3.14159   0.00000   0.00000   0.00000   0.00000   3.14159
   D13        0.00000   0.00000   0.00000   0.00000   0.00000   0.00000
   D14        3.14159   0.00000   0.00000   0.00000   0.00000   3.14159
   D15        0.00000   0.00000   0.00000   0.00000   0.00000   0.00000
   D16        3.14159   0.00000   0.00000   0.00000   0.00000   3.14159
         Item               Value     Threshold  Converged?
 Maximum Force            0.000213     0.000450     YES
 RMS     Force            0.000066     0.000300     YES
 Maximum Displacement     0.000526     0.001800     YES
 RMS     Displacement     0.000182     0.001200     YES
 Predicted change in Energy=-1.851425D-07
 Optimization completed.
    -- Stationary point found.
                         ----------------------------
                         !   Optimized Parameters   !
                         ! (Angstroms and Degrees)  !
 ------------------------                            -------------------------
 ! Name  Definition              Value          Derivative Info.             !
 -----------------------------------------------------------------------------
 ! R1    R(1,2)                  1.0709         -DE/DX =    0.               !
 ! R2    R(2,4)                  1.3897         -DE/DX =    0.0001           !
 ! R3    R(2,9)                  1.3686         -DE/DX =   -0.0001           !
 ! R4    R(3,4)                  1.0698         -DE/DX =    0.               !
 ! R5    R(4,6)                  1.4388         -DE/DX =   -0.0001           !
 ! R6    R(5,6)                  1.0711         -DE/DX =    0.               !
 ! R7    R(6,7)                  1.3303         -DE/DX =    0.0002           !
 ! R8    R(7,9)                  1.3665         -DE/DX =   -0.0001           !
 ! R9    R(8,9)                  0.9947         -DE/DX =    0.               !
 ! A1    A(1,2,4)              131.1698         -DE/DX =   -0.0001           !
 ! A2    A(1,2,9)              122.2331         -DE/DX =   -0.0001           !
 ! A3    A(4,2,9)              106.597          -DE/DX =    0.0001           !
 ! A4    A(2,4,3)              127.6713         -DE/DX =    0.               !
 ! A5    A(2,4,6)              104.4402         -DE/DX =   -0.0001           !
 ! A6    A(3,4,6)              127.8885         -DE/DX =    0.0001           !
 ! A7    A(4,6,5)              128.5963         -DE/DX =    0.               !
 ! A8    A(4,6,7)              111.4137         -DE/DX =    0.               !
 ! A9    A(5,6,7)              119.99           -DE/DX =    0.               !
 ! A10   A(6,7,9)              105.0946         -DE/DX =    0.0001           !
 ! A11   A(2,9,7)              112.4545         -DE/DX =   -0.0001           !
 ! A12   A(2,9,8)              128.0713         -DE/DX =    0.               !
 ! A13   A(7,9,8)              119.4741         -DE/DX =    0.0001           !
 ! D1    D(1,2,4,3)              0.             -DE/DX =    0.               !
 ! D2    D(1,2,4,6)            180.             -DE/DX =    0.               !
 ! D3    D(9,2,4,3)            180.             -DE/DX =    0.               !
 ! D4    D(9,2,4,6)              0.             -DE/DX =    0.               !
 ! D5    D(1,2,9,7)            180.             -DE/DX =    0.               !
 ! D6    D(1,2,9,8)              0.             -DE/DX =    0.               !
 ! D7    D(4,2,9,7)              0.             -DE/DX =    0.               !
 ! D8    D(4,2,9,8)            180.             -DE/DX =    0.               !
 ! D9    D(2,4,6,5)            180.             -DE/DX =    0.               !
 ! D10   D(2,4,6,7)              0.             -DE/DX =    0.               !
 ! D11   D(3,4,6,5)              0.             -DE/DX =    0.               !
 ! D12   D(3,4,6,7)            180.             -DE/DX =    0.               !
 ! D13   D(4,6,7,9)              0.             -DE/DX =    0.               !
 ! D14   D(5,6,7,9)            180.             -DE/DX =    0.               !
 ! D15   D(6,7,9,2)              0.             -DE/DX =    0.               !
 ! D16   D(6,7,9,8)            180.             -DE/DX =    0.               !
 -----------------------------------------------------------------------------
 GradGradGradGradGradGradGradGradGradGradGradGradGradGradGradGradGradGrad

 1\1\GINC-WOLFRAM\Freq\RHF\CEP-31G\C3H4N2\RDJ3\30-Aug-2000\0\\#N GEOM=A
 LLCHECK GUESS=TCHECK RHF/CEP-31G FREQ\\1H pyrazole C3H4N2 casno=288131
 \\0,1\H,-1.8771912094,0.,-1.1810854132\C,-0.9352762607,0.,-0.671578843
 9\H,0.6843369942,0.,-2.1780934634\C,0.3670796391,0.,-1.1564393438\H,2.
 2582377591,0.,0.0939322715\C,1.1894456567,0.,0.0241409502\N,0.45084205
 63,0.,1.130537588\H,-1.5844629422,0.,1.3581988578\N,-0.8440254048,0.,0
 .6939737515\\Version=IBM-RS6000-G98RevA.6\State=1-A'\HF=-38.007699\RMS
 D=5.755e-10\RMSF=8.970e-05\Dipole=-0.8401716,0.,-0.6418897\DipoleDeriv
 =-0.0230287,0.,-0.0694718,0.,0.2370382,0.,-0.0570665,0.,0.0860746,0.25
 86475,0.,-0.1633459,0.,-0.0524089,0.,-0.4214084,0.,0.3366883,0.1030887
 ,0.,0.0441061,0.,0.2266451,0.,0.0448551,0.,-0.0639554,-0.3930464,0.,-0
 .0335157,0.,-0.3160774,0.,-0.057197,0.,-0.0035813,-0.0760125,0.,-0.009
 7642,0.,0.1734871,0.,-0.0371781,0.,0.0978911,0.3091028,0.,0.1064577,0.
 ,-0.0392728,0.,0.2953376,0.,0.2538657,0.1218058,0.,-0.2347317,0.,-0.24
 08167,0.,-0.0804854,0.,-0.6011416,0.2446814,0.,-0.0482126,0.,0.4248729
 ,0.,-0.0505615,0.,0.2372419,-0.5452387,0.,0.4084779,0.,-0.4134674,0.,0
 .3637041,0.,-0.3430832\Polar=48.2371806,0.,19.5832313,-1.1217557,0.,43
 .6471724\PolarDeriv=-7.3922487,0.,0.3840469,-2.8472438,0.,-1.9153939,0
 .,0.709445,0.,0.,0.2971353,0.,-2.9641153,0.,0.6088,-2.3728545,0.,-2.15
 18571,-4.8398051,0.,-1.7299667,-4.300119,0.,-4.9944626,0.,-7.7485787,0
 .,0.,-1.5157728,0.,-1.0106041,0.,-0.241298,2.7448707,0.,0.3893976,1.36
 11942,0.,-0.4733443,-1.4533693,0.,1.7543811,0.,-0.6926517,0.,0.,0.6989
 183,0.,-1.4782307,0.,1.2713132,2.100845,0.,-8.2735594,3.2359851,0.,1.4
 004333,6.2161373,0.,5.3344377,0.,4.6002746,0.,0.,-6.2216458,0.,-2.1817
 365,0.,-2.2924101,3.6922563,0.,-0.605531,9.8623168,0.,-0.5550443,0.825
 598,0.,1.0362296,0.,0.0228832,0.,0.,0.1693523,0.,0.4564421,0.,0.766963
 7,1.1569571,0.,0.1189653,1.4648572,0.,1.0793748,-2.5484636,0.,1.361896
 1,0.,4.7362197,0.,0.,0.258644,0.,1.1543586,0.,-0.8868718,-6.8389637,0.
 ,-8.8286151,2.8798175,0.,-1.2455863,-0.8845242,0.,-2.3960711,0.,0.4622
 439,0.,0.,4.0471091,0.,1.8825167,0.,0.412324,5.7460023,0.,16.8124277,-
 5.1744679,0.,0.1022243,3.3147236,0.,-2.8245323,0.,-0.5073171,0.,0.,0.3
 374462,0.,2.3945847,0.,0.1688033,-3.150003,0.,4.2364987,-1.397649,0.,1
 .0378624,1.677261,0.,2.6435155,0.,-1.5825189,0.,0.,1.9288135,0.,1.7467
 846,0.,0.1923756,-3.0791102,0.,-1.6977268\HyperPolar=-34.0613354,0.,2.
 7197826,0.,23.2871821,0.,-26.118818,7.8271862,0.,-25.0148674\PG=CS [SG
 (C3H4N2)]\NImag=0\\0.34156541,0.,0.02886290,0.15266007,0.,0.14344592,-
 0.34209145,0.,-0.13363399,0.99976314,0.,-0.04142422,0.,0.,0.16366528,-
 0.14530775,0.,-0.14129014,0.11453871,0.,0.71318904,0.00032868,0.,-0.00
 101029,0.00332025,0.,0.03041912,0.09025236,0.,-0.00363146,0.,0.,0.0009
 8030,0.,0.,0.02938668,0.00077384,0.,-0.00009042,-0.00659345,0.,0.00187
 047,-0.10469381,0.,0.39240820,-0.00409959,0.,0.01245551,-0.40708745,0.
 ,0.08155780,-0.09901518,0.,0.09929697,0.71107045,0.,0.00479099,0.,0.,-
 0.08412342,0.,0.,-0.03971891,0.,0.,0.15649924,-0.01830084,0.,0.0141624
 4,0.10973743,0.,-0.17103037,0.09596494,0.,-0.38449492,-0.14813394,0.,0
 .94528021,-0.00046210,0.,0.00003575,-0.00101787,0.,-0.00023393,-0.0001
 7387,0.,-0.00063964,-0.00097306,0.,0.00685309,0.42282126,0.,0.00039689
 ,0.,0.,0.00579426,0.,0.,-0.00196219,0.,0.,0.00261416,0.,0.,0.03220026,
 -0.00109316,0.,0.00126328,-0.00407045,0.,-0.00711748,0.00105341,0.,0.0
 0005635,-0.02372393,0.,0.00903768,0.02224382,0.,0.06523785,-0.00454068
 ,0.,0.00543859,-0.06114668,0.,-0.00822385,0.01485270,0.,0.01444724,-0.
 20462460,0.,-0.10040777,-0.40882824,0.,-0.03703144,1.01894485,0.,0.007
 60257,0.,0.,0.01263445,0.,0.,-0.00031366,0.,0.,-0.08430681,0.,0.,-0.04
 352287,0.,0.,0.17658635,0.00069515,0.,-0.00234638,-0.07126922,0.,0.053
 43771,-0.01930439,0.,-0.00712284,-0.07073492,0.,-0.25430648,-0.0234178
 6,0.,-0.07136617,-0.03397603,0.,0.68576915,0.00107339,0.,0.00242561,-0
 .06073978,0.,-0.04310907,-0.00275652,0.,-0.00129375,0.03405039,0.,0.03
 921705,-0.01151299,0.,0.03362624,-0.22080457,0.,0.17491590,0.56541549,
 0.,0.00592410,0.,0.,0.01917378,0.,0.,0.00604525,0.,0.,0.02701287,0.,0.
 ,-0.00718259,0.,0.,-0.08387872,0.,0.,0.11678392,0.00307146,0.,-0.00523
 176,-0.02107016,0.,-0.08455045,-0.00704781,0.,-0.00391711,-0.03893047,
 0.,-0.08779085,-0.00765040,0.,0.00691948,0.13225699,0.,-0.35517171,-0.
 07792268,0.,0.64176231,-0.00008770,0.,0.00063253,0.01338944,0.,-0.0105
 8039,0.00093190,0.,-0.00013388,0.00233648,0.,-0.00378946,-0.00048766,0
 .,0.00159823,-0.00813402,0.,-0.00648845,-0.01522672,0.,0.03106250,0.34
 635692,0.,-0.00190305,0.,0.,-0.00542662,0.,0.,0.00212186,0.,0.,0.00448
 046,0.,0.,0.00177633,0.,0.,0.00525652,0.,0.,-0.01032730,0.,0.,0.018839
 64,-0.00067805,0.,0.00025362,0.02911410,0.,-0.00518877,0.00127231,0.,0
 .00008500,-0.00270819,0.,-0.00702319,-0.00072669,0.,0.00123578,-0.0080
 9723,0.,0.00092278,-0.01532296,0.,0.01759865,-0.23839565,0.,0.29257267
 ,0.00831404,0.,-0.03900380,-0.14438959,0.,-0.01906062,-0.00774032,0.,-
 0.00116353,-0.03165743,0.,0.01885952,0.00063454,0.,0.00739729,-0.12571
 876,0.,0.04957982,-0.28949869,0.,-0.01376943,-0.33907864,0.,0.23554236
 ,0.92913486,0.,-0.00061872,0.,0.,-0.07127382,0.,0.,0.00709212,0.,0.,0.
 01275142,0.,0.,0.00988576,0.,0.,0.00994217,0.,0.,-0.07355130,0.,0.,-0.
 01481783,0.,0.,0.12059019,0.00817929,0.,-0.01016656,-0.01675296,0.,-0.
 35932001,0.00334652,0.,0.00120528,0.09092117,0.,-0.06383452,0.00353585
 ,0.,-0.00526677,0.03559350,0.,-0.04981606,-0.11253634,0.,-0.12961857,0
 .22609456,0.,-0.30045654,-0.23838160,0.,0.91727376\\-0.00003229,0.,0.0
 0000639,-0.00001487,0.,-0.00027740,0.00000721,0.,0.00000459,-0.0002012
 0,0.,0.00009531,0.00000700,0.,0.00003304,-0.00005959,0.,0.00018952,0.0
 0019602,0.,-0.00003704,0.00001545,0.,0.00002308,0.00008227,0.,-0.00003
 749\\\@

 THE RARE EARTHS PERPLEX US IN OUR RESEARCHES,
 BAFFLE US IN OUR SPECULATIONS, AND HAUNT US IN OUR
 VERY DREAMS.  THEY STRETCH LIKE AN UNKNOWN BEFORE US,
 MOCKING, MYSTIFYING, AND MURMURING STRANGE REVELATIONS
 AND POSSIBILITIES.  -- SIR WILLIAM CROOKE, 1832-1919
 Job cpu time:  0 days  0 hours  0 minutes 38.8 seconds.
 File lengths (MBytes):  RWF=   12 Int=    0 D2E=    0 Chk=    8 Scr=    1
 Normal termination of Gaussian 98.
