 Gaussian 98, Revision A.6,
 Gaussian 98:  IBM-RS6000-G98RevA.6 19-Oct-1998

 ----------------
 #HF/SDD opt freq
 ----------------

 -------------------------------
 1H pyrazole C3H4N2 casno=288131
 -------------------------------
 Symbolic Z-matrix:
 Charge =  0 Multiplicity = 1

 SCF Done:  E(RHF) =  -224.655737706     A.U. after   14 cycles
 SCF Done:  E(RHF) =  -224.712264133     A.U. after   14 cycles
 SCF Done:  E(RHF) =  -224.721346779     A.U. after   14 cycles
 SCF Done:  E(RHF) =  -224.721648379     A.U. after   12 cycles
 SCF Done:  E(RHF) =  -224.721749258     A.U. after   11 cycles
 SCF Done:  E(RHF) =  -224.721755145     A.U. after   11 cycles
 SCF Done:  E(RHF) =  -224.721756273     A.U. after    9 cycles
 Optimization completed.
    -- Stationary point found.
 Normal termination of Gaussian 98.

 ------------------------------------------
 #N Geom=AllCheck Guess=TCheck RHF/SDD Freq
 ------------------------------------------

 1H pyrazole C3H4N2 casno=288131
 -------------------------------
 Redundant internal coordinates taken from checkpointfile:
 /wrk/rdj3/Gau-17292.chk
 Charge =  0 Multiplicity = 1

                         Standard orientation:
 ---------------------------------------------------------------------
 Center     Atomic     Atomic              Coordinates (Angstroms)
 Number     Number      Type              X           Y           Z
 ---------------------------------------------------------------------
    1          1             0        2.096066    0.713846    0.000000
    2          6             0        1.110287    0.309809    0.000000
    3          1             0        1.262297   -1.878172    0.000000
    4          6             0        0.670445   -0.993087    0.000000
    5          1             0       -1.470335   -1.682877    0.000000
    6          6             0       -0.751589   -0.896521    0.000000
    7          7             0       -1.143984    0.366016    0.000000
    8          1             0       -0.054999    2.086011    0.000000
    9          7             0        0.000000    1.096839    0.000000
 ---------------------------------------------------------------------

 SCF Done:  E(RHF) =  -224.721756273     A.U. after    1 cycles

  The electronic state is 1-A'.
 Alpha  occ. eigenvalues --  -15.63861 -15.60187 -11.29522 -11.26734 -11.23865
 Alpha  occ. eigenvalues --   -1.39516  -1.11740  -1.06358  -0.83539  -0.81027
 Alpha  occ. eigenvalues --   -0.75268  -0.62498  -0.61304  -0.59708  -0.57500
 Alpha  occ. eigenvalues --   -0.45241  -0.37615  -0.35249
 Alpha virt. eigenvalues --    0.14948   0.21136   0.22649   0.27039   0.28113
 Alpha virt. eigenvalues --    0.31867   0.33358   0.38422   0.39819   0.47933
 Alpha virt. eigenvalues --    0.50326   0.51107   0.53416   0.54075   0.59511

  Exact polarizability:  43.690   1.945  46.834   0.000   0.000  17.843
 Approx polarizability:  41.584   1.079  45.179   0.000   0.000  16.478

                     1                      2                      3
                    A"                     A"                     A"
 Frequencies --   675.2654               713.6568               743.1907
 Red. masses --     3.3434                 2.2465                 1.4478
 Frc consts  --     0.8982                 0.6741                 0.4712
 IR Inten    --    47.9446                24.3619               115.8304
 Raman Activ --     2.1236                 0.0685                 0.0774

                     4                      5                      6
                    A"                     A"                     A'
 Frequencies --   878.0456              1006.7493              1012.3168
 Red. masses --     1.1988                 1.2932                 5.3126
 Frc consts  --     0.5445                 0.7723                 3.2077
 IR Inten    --   130.9024                 4.5059                20.7934
 Raman Activ --     0.1935                 1.6887                 4.9480

                     7                      8                      9
                    A'                     A"                     A'
 Frequencies --  1020.8770              1050.9942              1119.7195
 Red. masses --     5.3927                 1.4463                 1.9814
 Frc consts  --     3.3114                 0.9412                 1.4637
 IR Inten    --     3.4100                 0.3956                58.6172
 Raman Activ --     5.4692                 2.5045                 1.6999

                    10                     11                     12
                    A'                     A'                     A'
 Frequencies --  1144.0915              1215.9417              1266.2614
 Red. masses --     1.5694                 2.3166                 2.0970
 Frc consts  --     1.2104                 2.0180                 1.9810
 IR Inten    --     2.5480                31.2311                 0.7242
 Raman Activ --     2.2583                13.4431                21.2339

                    13                     14                     15
                    A'                     A'                     A'
 Frequencies --  1396.1859              1526.7076              1533.0603
 Red. masses --     1.7072                 2.4258                 2.9363
 Frc consts  --     1.9607                 3.3313                 4.0660
 IR Inten    --     2.3147                 4.4721                19.8138
 Raman Activ --     9.4664                17.1456                43.6476

                    16                     17                     18
                    A'                     A'                     A'
 Frequencies --  1593.7611              1713.2995              3478.8771
 Red. masses --     2.3010                 2.7150                 1.0935
 Frc consts  --     3.4436                 4.6956                 7.7973
 IR Inten    --    22.7356                14.9125                 2.0138
 Raman Activ --     4.6334                 2.1233                81.4782

                    19                     20                     21
                    A'                     A'                     A'
 Frequencies --  3487.4040              3508.7198              3966.5102
 Red. masses --     1.1002                 1.1110                 1.0842
 Frc consts  --     7.8836                 8.0584                10.0507
 IR Inten    --     8.0595                 1.8790               123.5618
 Raman Activ --    11.1205               127.4700                76.9861

 - Thermochemistry -
 -------------------
 Temperature   298.150 Kelvin.  Pressure   1.00000 Atm.
 Atom  1 has atomic number  1 and mass   1.00783

 Molecular mass:    68.03745 amu.
 Principal axes and moments of inertia in atomic units:
                           1         2         3
     EIGENVALUES --   187.96505 190.96715 378.93219
           X            0.98910   0.14726   0.00000
           Y           -0.14726   0.98910   0.00000
           Z            0.00000   0.00000   1.00000
 THIS MOLECULE IS AN ASYMMETRIC TOP.
 ROTATIONAL SYMMETRY NUMBER  1.
 ROTATIONAL TEMPERATURES (KELVIN)      0.46080     0.45355     0.22857
 ROTATIONAL CONSTANTS (GHZ)            9.60147     9.45053     4.76270
 Zero-point vibrational energy     203674.0 (Joules/Mol)
                                   48.67926 (Kcal/Mol)
 VIBRATIONAL TEMPERATURES:    971.55  1026.79  1069.28  1263.30  1448.48
          (KELVIN)           1456.49  1468.81  1512.14  1611.02  1646.08
                             1749.46  1821.86  2008.79  2196.58  2205.72
                             2293.05  2465.04  5005.30  5017.57  5048.24
                             5706.89

 Zero-point correction=                           0.077575 (Hartree/Particle)
 Thermal correction to Energy=                    0.081023
 Thermal correction to Enthalpy=                  0.081967
 Thermal correction to Gibbs Free Energy=         0.051413
 Sum of electronic and zero-point Energies=           -224.644181
 Sum of electronic and thermal Energies=              -224.640734
 Sum of electronic and thermal Enthalpies=            -224.639789
 Sum of electronic and thermal Free Energies=         -224.670343

                     E (Thermal)             CV                S
                      KCAL/MOL        CAL/MOL-KELVIN    CAL/MOL-KELVIN
 TOTAL                   50.842             11.534             64.306
 ELECTRONIC               0.000              0.000              0.000
 TRANSLATIONAL            0.889              2.981             38.570
 ROTATIONAL               0.889              2.981             24.124
 VIBRATIONAL             49.065              5.572              1.612
                       Q            LOG10(Q)             LN(Q)
 TOTAL BOT       0.224786D-23        -23.648230        -54.452063
 TOTAL V=0       0.108071D+13         12.033709         27.708638
 VIB (BOT)       0.244084D-35        -35.612461        -82.000721
 VIB (V=0)       0.117349D+01          0.069478          0.159980
 ELECTRONIC      0.100000D+01          0.000000          0.000000
 TRANSLATIONAL   0.220588D+08          7.343582         16.909224
 ROTATIONAL      0.417492D+05          4.620648         10.639435
 ***** Axes restored to original set *****
 -------------------------------------------------------------------
 Center     Atomic                   Forces (Hartrees/Bohr)
 Number     Number              X              Y              Z
 -------------------------------------------------------------------
    1          1          -0.000003188    0.000000000   -0.000030224
    2          6          -0.000076124    0.000000000    0.000246074
    3          1          -0.000012289    0.000000000   -0.000030194
    4          6           0.000156452    0.000000000   -0.000031540
    5          1           0.000017193    0.000000000    0.000001980
    6          6          -0.000051692    0.000000000   -0.000161861
    7          7          -0.000110031    0.000000000    0.000178743
    8          1          -0.000012621    0.000000000    0.000012149
    9          7           0.000092299    0.000000000   -0.000185127
 -------------------------------------------------------------------
 Cartesian Forces:  Max     0.000246074 RMS     0.000088219

 GradGradGradGradGradGradGradGradGradGradGradGradGradGradGradGradGradGrad
 Berny optimization.
 Internal  Forces:  Max     0.000141116 RMS     0.000043462
 Search for a local minimum.
 Step number   1 out of a maximum of  48
 All quantities printed in internal units (Hartrees-Bohrs-Radians)
 Second derivative matrix not updated -- analytic derivatives used.
     Eigenvalues ---    0.01220   0.01584   0.02249   0.03455   0.06810
     Eigenvalues ---    0.07504   0.11179   0.12317   0.12778   0.13949
     Eigenvalues ---    0.26606   0.29522   0.37726   0.42394   0.42587
     Eigenvalues ---    0.42808   0.45198   0.47553   0.55771   0.57844
     Eigenvalues ---    0.648631000.000001000.000001000.000001000.00000
     Eigenvalues --- 1000.000001000.000001000.000001000.000001000.00000
     Eigenvalues --- 1000.000001000.000001000.000001000.000001000.00000
     Eigenvalues --- 1000.000001000.000001000.00000
 Angle between quadratic step and forces=  24.43 degrees.
 Linear search not attempted -- first point.
 Iteration  1 RMS(Cart)=  0.00010410 RMS(Int)=  0.00000001
 Iteration  2 RMS(Cart)=  0.00000001 RMS(Int)=  0.00000000
 Variable       Old X    -DE/DX   Delta X   Delta X   Delta X     New X
                                 (Linear)    (Quad)   (Total)
    R1        2.01325   0.00002   0.00000   0.00004   0.00004   2.01330
    R2        2.59863   0.00009   0.00000   0.00029   0.00029   2.59892
    R3        2.57180  -0.00013   0.00000  -0.00043  -0.00043   2.57137
    R4        2.01206   0.00003   0.00000   0.00005   0.00005   2.01211
    R5        2.69344  -0.00006   0.00000  -0.00023  -0.00023   2.69322
    R6        2.01320   0.00002   0.00000   0.00005   0.00005   2.01325
    R7        2.49842   0.00014   0.00000   0.00033   0.00033   2.49875
    R8        2.56530  -0.00005   0.00000  -0.00008  -0.00008   2.56522
    R9        1.87215   0.00002   0.00000   0.00004   0.00004   1.87219
    A1        2.28535  -0.00004   0.00000  -0.00029  -0.00029   2.28506
    A2        2.13597   0.00001   0.00000   0.00023   0.00023   2.13620
    A3        1.86186   0.00003   0.00000   0.00007   0.00007   1.86193
    A4        2.22661   0.00001   0.00000  -0.00013  -0.00013   2.22648
    A5        1.82857  -0.00006   0.00000  -0.00016  -0.00016   1.82841
    A6        2.22800   0.00005   0.00000   0.00029   0.00029   2.22830
    A7        2.24350  -0.00001   0.00000   0.00001   0.00001   2.24351
    A8        1.93993   0.00003   0.00000   0.00012   0.00012   1.94005
    A9        2.09975  -0.00001   0.00000  -0.00013  -0.00013   2.09962
   A10        1.83795  -0.00006   0.00000  -0.00021  -0.00021   1.83774
   A11        1.95646   0.00006   0.00000   0.00019   0.00019   1.95665
   A12        2.24298  -0.00003   0.00000  -0.00010  -0.00010   2.24288
   A13        2.08374  -0.00003   0.00000  -0.00009  -0.00009   2.08365
    D1        0.00000   0.00000   0.00000   0.00000   0.00000   0.00000
    D2        3.14159   0.00000   0.00000   0.00000   0.00000   3.14159
    D3        3.14159   0.00000   0.00000   0.00000   0.00000   3.14159
    D4        0.00000   0.00000   0.00000   0.00000   0.00000   0.00000
    D5        3.14159   0.00000   0.00000   0.00000   0.00000   3.14159
    D6        0.00000   0.00000   0.00000   0.00000   0.00000   0.00000
    D7        0.00000   0.00000   0.00000   0.00000   0.00000   0.00000
    D8        3.14159   0.00000   0.00000   0.00000   0.00000   3.14159
    D9        3.14159   0.00000   0.00000   0.00000   0.00000   3.14159
   D10        0.00000   0.00000   0.00000   0.00000   0.00000   0.00000
   D11        0.00000   0.00000   0.00000   0.00000   0.00000   0.00000
   D12        3.14159   0.00000   0.00000   0.00000   0.00000   3.14159
   D13        0.00000   0.00000   0.00000   0.00000   0.00000   0.00000
   D14        3.14159   0.00000   0.00000   0.00000   0.00000   3.14159
   D15        0.00000   0.00000   0.00000   0.00000   0.00000   0.00000
   D16        3.14159   0.00000   0.00000   0.00000   0.00000   3.14159
         Item               Value     Threshold  Converged?
 Maximum Force            0.000141     0.000450     YES
 RMS     Force            0.000043     0.000300     YES
 Maximum Displacement     0.000335     0.001800     YES
 RMS     Displacement     0.000104     0.001200     YES
 Predicted change in Energy=-1.118906D-07
 Optimization completed.
    -- Stationary point found.
                         ----------------------------
                         !   Optimized Parameters   !
                         ! (Angstroms and Degrees)  !
 ------------------------                            -------------------------
 ! Name  Definition              Value          Derivative Info.             !
 -----------------------------------------------------------------------------
 ! R1    R(1,2)                  1.0654         -DE/DX =    0.               !
 ! R2    R(2,4)                  1.3751         -DE/DX =    0.0001           !
 ! R3    R(2,9)                  1.3609         -DE/DX =   -0.0001           !
 ! R4    R(3,4)                  1.0647         -DE/DX =    0.               !
 ! R5    R(4,6)                  1.4253         -DE/DX =   -0.0001           !
 ! R6    R(5,6)                  1.0653         -DE/DX =    0.               !
 ! R7    R(6,7)                  1.3221         -DE/DX =    0.0001           !
 ! R8    R(7,9)                  1.3575         -DE/DX =    0.               !
 ! R9    R(8,9)                  0.9907         -DE/DX =    0.               !
 ! A1    A(1,2,4)              130.941          -DE/DX =    0.               !
 ! A2    A(1,2,9)              122.382          -DE/DX =    0.               !
 ! A3    A(4,2,9)              106.677          -DE/DX =    0.               !
 ! A4    A(2,4,3)              127.5756         -DE/DX =    0.               !
 ! A5    A(2,4,6)              104.7692         -DE/DX =   -0.0001           !
 ! A6    A(3,4,6)              127.6552         -DE/DX =    0.               !
 ! A7    A(4,6,5)              128.5431         -DE/DX =    0.               !
 ! A8    A(4,6,7)              111.15           -DE/DX =    0.               !
 ! A9    A(5,6,7)              120.3069         -DE/DX =    0.               !
 ! A10   A(6,7,9)              105.3069         -DE/DX =   -0.0001           !
 ! A11   A(2,9,7)              112.0969         -DE/DX =    0.0001           !
 ! A12   A(2,9,8)              128.5134         -DE/DX =    0.               !
 ! A13   A(7,9,8)              119.3896         -DE/DX =    0.               !
 ! D1    D(1,2,4,3)              0.             -DE/DX =    0.               !
 ! D2    D(1,2,4,6)            180.             -DE/DX =    0.               !
 ! D3    D(9,2,4,3)            180.             -DE/DX =    0.               !
 ! D4    D(9,2,4,6)              0.             -DE/DX =    0.               !
 ! D5    D(1,2,9,7)            180.             -DE/DX =    0.               !
 ! D6    D(1,2,9,8)              0.             -DE/DX =    0.               !
 ! D7    D(4,2,9,7)              0.             -DE/DX =    0.               !
 ! D8    D(4,2,9,8)            180.             -DE/DX =    0.               !
 ! D9    D(2,4,6,5)            180.             -DE/DX =    0.               !
 ! D10   D(2,4,6,7)              0.             -DE/DX =    0.               !
 ! D11   D(3,4,6,5)              0.             -DE/DX =    0.               !
 ! D12   D(3,4,6,7)            180.             -DE/DX =    0.               !
 ! D13   D(4,6,7,9)              0.             -DE/DX =    0.               !
 ! D14   D(5,6,7,9)            180.             -DE/DX =    0.               !
 ! D15   D(6,7,9,2)              0.             -DE/DX =    0.               !
 ! D16   D(6,7,9,8)            180.             -DE/DX =    0.               !
 -----------------------------------------------------------------------------
 GradGradGradGradGradGradGradGradGradGradGradGradGradGradGradGradGradGrad

 1\1\GINC-AURUM\Freq\RHF\SDD\C3H4N2\RDJ3\08-Sep-2000\0\\#N GEOM=ALLCHEC
 K GUESS=TCHECK RHF/SDD FREQ\\1H pyrazole C3H4N2 casno=288131\\0,1\H,-1
 .8726251945,0.,-1.1816702658\C,-0.9387941993,0.,-0.6688673045\H,0.6674
 857873,0.,-2.162264232\C,0.3510462562,0.,-1.1456374404\H,2.2330637303,
 0.,0.0859304466\C,1.1696967291,0.,0.0211184932\N,0.4343138288,0.,1.119
 838387\H,-1.5879390247,0.,1.3538519986\N,-0.8531249737,0.,0.6893715506
 \\Version=IBM-RS6000-G98RevA.6\State=1-A'\HF=-224.7217563\RMSD=1.955e-
 09\RMSF=8.822e-05\Dipole=-0.8403541,0.,-0.599706\DipoleDeriv=-0.006391
 1,0.,-0.0603656,0.,0.2335371,0.,-0.0507242,0.,0.0922884,0.2416817,0.,-
 0.1694714,0.,-0.07278,0.,-0.4194817,0.,0.3343144,0.1076441,0.,0.042938
 2,0.,0.235886,0.,0.0426166,0.,-0.0514717,-0.3950262,0.,-0.0255233,0.,-
 0.3244781,0.,-0.0479942,0.,-0.0055841,-0.0608242,0.,-0.008234,0.,0.177
 4147,0.,-0.0271539,0.,0.1008735,0.2868737,0.,0.1154973,0.,-0.0503649,0
 .,0.2751063,0.,0.2345203,0.1227951,0.,-0.2461388,0.,-0.2477616,0.,-0.0
 918142,0.,-0.6072945,0.2580142,0.,-0.0488549,0.,0.4184486,0.,-0.053241
 2,0.,0.2503191,-0.5547673,0.,0.4001524,0.,-0.3699018,0.,0.3726866,0.,-
 0.3479654\Polar=47.4943435,0.,17.8426515,-1.1285046,0.,43.0304392\Pola
 rDeriv=-7.2813025,0.,-0.5374162,-2.8856619,0.,-1.904115,0.,0.1979374,0
 .,0.,-0.0966864,0.,-2.7057836,0.,0.1814185,-2.5006765,0.,-2.3238823,-4
 .6821537,0.,0.5634496,-4.0937035,0.,-4.9864493,0.,-7.2653502,0.,0.,-1.
 3181648,0.,-1.2086648,0.,-0.6879055,2.9544963,0.,0.8352725,1.3987055,0
 .,0.0400874,-1.5227052,0.,1.7134985,0.,-0.3298375,0.,0.,-0.3250363,0.,
 -1.3889765,0.,-0.4086936,2.0812079,0.,-8.2125374,3.3373045,0.,0.268719
 1,6.3997599,0.,5.4668718,0.,3.958917,0.,0.,-4.5933427,0.,-2.2646068,0.
 ,0.7172381,3.6994075,0.,-0.2491451,9.720133,0.,0.3347896,0.5888599,0.,
 0.7827558,0.,0.5649126,0.,0.,0.1376285,0.,0.463181,0.,0.8472593,1.3749
 524,0.,0.1721627,1.5182101,0.,-0.5697558,-2.2466999,0.,1.6574173,0.,4.
 3313213,0.,0.,0.0460432,0.,0.8969037,0.,-1.9555659,-7.2820827,0.,-8.82
 893,2.6553578,0.,-0.3426648,-1.0391316,0.,-2.1877261,0.,-0.0523999,0.,
 0.,3.9912383,0.,2.0679066,0.,0.7870849,5.5268543,0.,16.1670325,-4.8802
 253,0.,-0.0471186,3.2487076,0.,-2.61302,0.,-0.771989,0.,0.,0.5982597,0
 .,2.5095334,0.,0.2120801,-3.0393586,0.,4.1241537,-1.7860295,0.,0.28990
 97,1.5505746,0.,2.070767,0.,-0.6335117,0.,0.,1.5600605,0.,1.630507,0.,
 0.3070841,-2.8148006,0.,-1.6841265\HyperPolar=-29.4052745,0.,2.3866682
 ,0.,18.9005679,0.,-17.4841167,4.4838347,0.,-21.3566909\PG=CS [SG(C3H4N
 2)]\NImag=0\\0.34088035,0.,0.02910588,0.15421136,0.,0.14733738,-0.3406
 3128,0.,-0.13576295,0.99993351,0.,-0.04198849,0.,0.,0.16927640,-0.1473
 1897,0.,-0.14548161,0.12317329,0.,0.72077685,0.00036274,0.,-0.00101548
 ,0.00315979,0.,0.03110268,0.09134169,0.,-0.00390455,0.,0.,0.00099666,0
 .,0.,0.02843379,0.00073182,0.,-0.00004832,-0.00676866,0.,0.00142047,-0
 .10535091,0.,0.39449295,-0.00600394,0.,0.01301679,-0.40014737,0.,0.077
 55968,-0.10023933,0.,0.09975623,0.70880976,0.,0.00530334,0.,0.,-0.0882
 3685,0.,0.,-0.03766655,0.,0.,0.15698416,-0.01851615,0.,0.01447003,0.10
 603669,0.,-0.17244097,0.09688349,0.,-0.38582628,-0.15178303,0.,0.94763
 281,-0.00043513,0.,0.00011163,-0.00011677,0.,-0.00030786,-0.00015709,0
 .,-0.00074780,-0.00245217,0.,0.00645652,0.42499688,0.,0.00047692,0.,0.
 ,0.00533075,0.,0.,-0.00198985,0.,0.,0.00292625,0.,0.,0.03179197,-0.000
 97950,0.,0.00117908,-0.00373171,0.,-0.00701486,0.00112861,0.,0.0001649
 6,-0.02516684,0.,0.00857283,0.02107357,0.,0.06568552,-0.00418691,0.,0.
 00541212,-0.06651349,0.,-0.00853421,0.01496090,0.,0.01523554,-0.201803
 04,0.,-0.09511163,-0.41040185,0.,-0.03518513,1.02902324,0.,0.00744105,
 0.,0.,0.01486590,0.,0.,-0.00104722,0.,0.,-0.08666245,0.,0.,-0.04319224
 ,0.,0.,0.17983778,0.00105954,0.,-0.00201449,-0.07513629,0.,0.05213663,
 -0.02000680,0.,-0.00790421,-0.06412122,0.,-0.24793726,-0.02249713,0.,-
 0.07148114,-0.04333910,0.,0.68637709,0.00120247,0.,0.00258133,-0.06497
 805,0.,-0.04420843,-0.00273007,0.,-0.00110266,0.03461763,0.,0.03955386
 ,-0.01217190,0.,0.03430411,-0.22155764,0.,0.17722435,0.56213301,0.,0.0
 0597951,0.,0.,0.02030831,0.,0.,0.00626927,0.,0.,0.02745987,0.,0.,-0.00
 700756,0.,0.,-0.08671055,0.,0.,0.12012144,0.00331421,0.,-0.00497425,-0
 .02288562,0.,-0.08708558,-0.00699884,0.,-0.00357118,-0.03999980,0.,-0.
 09141264,-0.00646647,0.,0.00712820,0.13326924,0.,-0.36095851,-0.083131
 96,0.,0.65442493,-0.00019998,0.,0.00050910,0.01390337,0.,-0.01037238,0
 .00095067,0.,-0.00002490,0.00196331,0.,-0.00397790,-0.00051611,0.,0.00
 154253,-0.00754419,0.,-0.00657926,-0.01769399,0.,0.03112121,0.34402298
 ,0.,-0.00191500,0.,0.,-0.00517554,0.,0.,0.00215084,0.,0.,0.00418614,0.
 ,0.,0.00175300,0.,0.,0.00545710,0.,0.,-0.01044110,0.,0.,0.01865374,-0.
 00090334,0.,0.00016875,0.02982756,0.,-0.00619654,0.00109637,0.,0.00019
 205,-0.00312760,0.,-0.00701356,-0.00051209,0.,0.00113159,-0.00841731,0
 .,0.00114813,-0.01570790,0.,0.01818600,-0.23741439,0.,0.29425382,0.009
 01168,0.,-0.03906388,-0.14460971,0.,-0.02109380,-0.00764928,0.,-0.0017
 2865,-0.03474484,0.,0.02045815,0.00125413,0.,0.00701435,-0.13197703,0.
 ,0.05339590,-0.27882146,0.,-0.00822197,-0.33488606,0.,0.23515870,0.922
 42258,0.,-0.00049865,0.,0.,-0.07537713,0.,0.,0.00675761,0.,0.,0.015706
 09,0.,0.,0.00991076,0.,0.,0.01001064,0.,0.,-0.07597920,0.,0.,-0.014669
 19,0.,0.,0.12413907,0.00840102,0.,-0.01063657,-0.01475232,0.,-0.356114
 39,0.00316088,0.,0.00107956,0.09386581,0.,-0.06604496,0.00288963,0.,-0
 .00536617,0.03667048,0.,-0.04936623,-0.10951269,0.,-0.13173697,0.22519
 599,0.,-0.30187022,-0.24591879,0.,0.92005596\\0.00000319,0.,0.00003022
 ,0.00007612,0.,-0.00024607,0.00001229,0.,0.00003019,-0.00015645,0.,0.0
 0003154,-0.00001719,0.,-0.00000198,0.00005169,0.,0.00016186,0.00011003
 ,0.,-0.00017874,0.00001262,0.,-0.00001215,-0.00009230,0.,0.00018513\\\
 @

 THE BEST WAY TO CONVINCE A FOOL THAT HE IS WRONG
 IS TO LET HIM HAVE HIS OWN WAY.

                                         JOSH BILLINGS
 Job cpu time:  0 days  0 hours  1 minutes 41.6 seconds.
 File lengths (MBytes):  RWF=   16 Int=    0 D2E=    0 Chk=    8 Scr=    1
 Normal termination of Gaussian 98.
