 Gaussian 98, Revision A.6,
 Gaussian 98:  IBM-RS6000-G98RevA.6 19-Oct-1998

 ----------------------
 #HF/CEP-121G* opt freq
 ----------------------

 -------------------------------
 1H pyrazole C3H4N2 casno=288131
 -------------------------------
 Symbolic Z-matrix:
 Charge =  0 Multiplicity = 1

 SCF Done:  E(RHF) =  -38.0627289654     A.U. after   13 cycles
 SCF Done:  E(RHF) =  -38.1155419593     A.U. after   13 cycles
 SCF Done:  E(RHF) =  -38.1238479753     A.U. after   13 cycles
 SCF Done:  E(RHF) =  -38.1240889116     A.U. after   12 cycles
 SCF Done:  E(RHF) =  -38.1241699425     A.U. after   10 cycles
 SCF Done:  E(RHF) =  -38.1241740815     A.U. after    9 cycles
 Optimization completed.
    -- Stationary point found.
 Normal termination of Gaussian 98.

 --------------------------------------------------
 #N Geom=AllCheck Guess=TCheck RHF/CEP-121G(d) Freq
 --------------------------------------------------

 1H pyrazole C3H4N2 casno=288131
 -------------------------------
 Redundant internal coordinates taken from checkpointfile:
 /wrk/rdj3/Gau-11044.chk
 Charge =  0 Multiplicity = 1

                         Standard orientation:
 ---------------------------------------------------------------------
 Center     Atomic     Atomic              Coordinates (Angstroms)
 Number     Number      Type              X           Y           Z
 ---------------------------------------------------------------------
    1          1             0        2.086432    0.699779    0.000000
    2          6             0        1.096665    0.286668    0.000000
    3          1             0        1.238137   -1.906002    0.000000
    4          6             0        0.650576   -1.009914    0.000000
    5          1             0       -1.504457   -1.661808    0.000000
    6          6             0       -0.765974   -0.882666    0.000000
    7          7             0       -1.141050    0.371975    0.000000
    8          1             0       -0.039930    2.066873    0.000000
    9          7             0        0.000000    1.072986    0.000000
 ---------------------------------------------------------------------

 SCF Done:  E(RHF) =  -38.1241740815     A.U. after    1 cycles

  The electronic state is 1-A'.
 Alpha  occ. eigenvalues --   -1.39329  -1.11249  -1.06084  -0.83058  -0.80942
 Alpha  occ. eigenvalues --   -0.74744  -0.61636  -0.60990  -0.59585  -0.56429
 Alpha  occ. eigenvalues --   -0.45501  -0.36466  -0.34611
 Alpha virt. eigenvalues --    0.14263   0.16281   0.17852   0.18602   0.20521
 Alpha virt. eigenvalues --    0.21853   0.30590   0.31571   0.33147   0.34958
 Alpha virt. eigenvalues --    0.46095   0.47078   0.49849   0.51782   0.55069

  Exact polarizability:  46.160   1.786  48.826   0.000   0.000  24.693
 Approx polarizability:  44.361   0.982  47.338   0.000   0.000  26.177

                     1                      2                      3
                    A"                     A"                     A"
 Frequencies --   523.3639               677.0235               734.2173
 Red. masses --     1.6654                 2.4016                 2.9075
 Frc consts  --     0.2688                 0.6486                 0.9235
 IR Inten    --    81.4086                 0.1555                23.3563
 Raman Activ --     0.6358                 0.2460                 0.1670

                     4                      5                      6
                    A"                     A"                     A'
 Frequencies --   845.5171               973.9977               986.7280
 Red. masses --     1.1830                 1.2675                 5.5728
 Frc consts  --     0.4983                 0.7085                 3.1968
 IR Inten    --   128.0345                 3.0140                15.3530
 Raman Activ --     0.0655                 0.4002                 4.4746

                     7                      8                      9
                    A'                     A"                     A'
 Frequencies --  1001.4384              1009.2897              1114.1801
 Red. masses --     4.4334                 1.3607                 1.5746
 Frc consts  --     2.6196                 0.8167                 1.1517
 IR Inten    --     4.5673                 5.3953                 0.3001
 Raman Activ --     2.0561                 1.1761                 0.8452

                    10                     11                     12
                    A'                     A'                     A'
 Frequencies --  1129.4582              1212.1865              1265.0330
 Red. masses --     1.6716                 1.9731                 2.7083
 Frc consts  --     1.2564                 1.7082                 2.5535
 IR Inten    --    57.2807                29.1199                 3.0573
 Raman Activ --     1.3518                10.4472                21.7366

                    13                     14                     15
                    A'                     A'                     A'
 Frequencies --  1387.0483              1517.3863              1523.2630
 Red. masses --     1.6382                 3.5490                 2.4443
 Frc consts  --     1.8570                 4.8145                 3.3416
 IR Inten    --     2.6596                29.7824                 7.6397
 Raman Activ --    11.3787                47.4878                 5.4280

                    16                     17                     18
                    A'                     A'                     A'
 Frequencies --  1610.6521              1716.3240              3410.7082
 Red. masses --     2.5349                 2.8767                 1.0941
 Frc consts  --     3.8745                 4.9928                 7.4990
 IR Inten    --    15.3200                11.0227                 8.0515
 Raman Activ --     2.5407                 2.0199                96.0922

                    19                     20                     21
                    A'                     A'                     A'
 Frequencies --  3422.8178              3440.9166              3919.1076
 Red. masses --     1.0962                 1.1083                 1.0830
 Frc consts  --     7.5666                 7.7311                 9.8009
 IR Inten    --     9.8416                 3.0701                96.6111
 Raman Activ --    25.5806               125.9809                81.0221

 - Thermochemistry -
 -------------------
 Temperature   298.150 Kelvin.  Pressure   1.00000 Atm.
 Atom  1 has atomic number  1 and mass   1.00783

 Molecular mass:    68.03745 amu.
 Principal axes and moments of inertia in atomic units:
                           1         2         3
     EIGENVALUES --   184.75283 189.45909 374.21191
           X            0.94512   0.32672   0.00000
           Y           -0.32672   0.94512   0.00000
           Z            0.00000   0.00000   1.00000
 THIS MOLECULE IS AN ASYMMETRIC TOP.
 ROTATIONAL SYMMETRY NUMBER  1.
 ROTATIONAL TEMPERATURES (KELVIN)      0.46881     0.45716     0.23146
 ROTATIONAL CONSTANTS (GHZ)            9.76841     9.52576     4.82278
 Zero-point vibrational energy     199899.9 (Joules/Mol)
                                   47.77723 (Kcal/Mol)
 WARNING-- EXPLICIT CONSIDERATION OF   1 DEGREES OF FREEDOM AS
           VIBRATIONS MAY CAUSE SIGNIFICANT ERROR
 VIBRATIONAL TEMPERATURES:    753.00   974.08  1056.37  1216.50  1401.36
          (KELVIN)           1419.67  1440.84  1452.13  1603.05  1625.03
                             1744.06  1820.09  1995.64  2183.17  2191.62
                             2317.36  2469.39  4907.22  4924.64  4950.68
                             5638.69

 Zero-point correction=                           0.076138 (Hartree/Particle)
 Thermal correction to Energy=                    0.079714
 Thermal correction to Enthalpy=                  0.080658
 Thermal correction to Gibbs Free Energy=         0.049937
 Sum of electronic and zero-point Energies=            -38.048036
 Sum of electronic and thermal Energies=               -38.044460
 Sum of electronic and thermal Enthalpies=             -38.043516
 Sum of electronic and thermal Free Energies=          -38.074237

                     E (Thermal)             CV                S
                      KCAL/MOL        CAL/MOL-KELVIN    CAL/MOL-KELVIN
 TOTAL                   50.021             12.141             64.658
 ELECTRONIC               0.000              0.000              0.000
 TRANSLATIONAL            0.889              2.981             38.570
 ROTATIONAL               0.889              2.981             24.086
 VIBRATIONAL             48.244              6.180              2.001
 VIBRATION  1             0.878              1.198              0.602
                       Q            LOG10(Q)             LN(Q)
 TOTAL BOT       0.107289D-22        -22.969443        -52.889097
 TOTAL V=0       0.112540D+13         12.051308         27.749163
 VIB (BOT)       0.118717D-34        -34.925487        -80.418905
 VIB (BOT)  1    0.307466D+00         -0.512203         -1.179391
 VIB (V=0)       0.124527D+01          0.095264          0.219354
 VIB (V=0)  1    0.108697D+01          0.036218          0.083395
 ELECTRONIC      0.100000D+01          0.000000          0.000000
 TRANSLATIONAL   0.220588D+08          7.343582         16.909224
 ROTATIONAL      0.409696D+05          4.612461         10.620585
 ***** Axes restored to original set *****
 -------------------------------------------------------------------
 Center     Atomic                   Forces (Hartrees/Bohr)
 Number     Number              X              Y              Z
 -------------------------------------------------------------------
    1          1          -0.000012042    0.000000000    0.000003265
    2          6          -0.000279223    0.000000000    0.000255103
    3          1           0.000016970    0.000000000    0.000070602
    4          6           0.000010985    0.000000000    0.000133092
    5          1           0.000035563    0.000000000    0.000030972
    6          6           0.000375677    0.000000000    0.000062660
    7          7          -0.000075945    0.000000000   -0.000306592
    8          1           0.000015939    0.000000000    0.000039215
    9          7          -0.000087925    0.000000000   -0.000288316
 -------------------------------------------------------------------
 Cartesian Forces:  Max     0.000375677 RMS     0.000136898

 GradGradGradGradGradGradGradGradGradGradGradGradGradGradGradGradGradGrad
 Berny optimization.
 Internal  Forces:  Max     0.000312901 RMS     0.000107726
 Search for a local minimum.
 Step number   1 out of a maximum of  48
 All quantities printed in internal units (Hartrees-Bohrs-Radians)
 Second derivative matrix not updated -- analytic derivatives used.
     Eigenvalues ---    0.00727   0.01431   0.02056   0.03362   0.06467
     Eigenvalues ---    0.07027   0.10770   0.12038   0.12772   0.13738
     Eigenvalues ---    0.25487   0.28414   0.38634   0.40801   0.41235
     Eigenvalues ---    0.41364   0.46044   0.46740   0.54486   0.56336
     Eigenvalues ---    0.655191000.000001000.000001000.000001000.00000
     Eigenvalues --- 1000.000001000.000001000.000001000.000001000.00000
     Eigenvalues --- 1000.000001000.000001000.000001000.000001000.00000
     Eigenvalues --- 1000.000001000.000001000.00000
 Angle between quadratic step and forces=  26.42 degrees.
 Linear search not attempted -- first point.
 Iteration  1 RMS(Cart)=  0.00031271 RMS(Int)=  0.00000007
 Iteration  2 RMS(Cart)=  0.00000008 RMS(Int)=  0.00000001
 Variable       Old X    -DE/DX   Delta X   Delta X   Delta X     New X
                                 (Linear)    (Quad)   (Total)
    R1        2.02677   0.00001   0.00000   0.00000   0.00000   2.02677
    R2        2.59114   0.00024   0.00000   0.00040   0.00040   2.59154
    R3        2.55006  -0.00031   0.00000  -0.00054  -0.00054   2.54952
    R4        2.02492  -0.00006   0.00000  -0.00012  -0.00012   2.02480
    R5        2.68767   0.00002   0.00000   0.00003   0.00003   2.68771
    R6        2.02864   0.00004   0.00000   0.00005   0.00005   2.02868
    R7        2.47461  -0.00011   0.00000  -0.00006  -0.00006   2.47455
    R8        2.53069   0.00006   0.00000  -0.00010  -0.00010   2.53059
    R9        1.87969   0.00001   0.00000   0.00003   0.00003   1.87972
    A1        2.29756   0.00006   0.00000   0.00008   0.00008   2.29764
    A2        2.12414   0.00004   0.00000   0.00027   0.00027   2.12441
    A3        1.86148  -0.00011   0.00000  -0.00035  -0.00035   1.86113
    A4        2.22986  -0.00005   0.00000  -0.00006  -0.00006   2.22980
    A5        1.81257   0.00017   0.00000   0.00052   0.00052   1.81309
    A6        2.24075  -0.00012   0.00000  -0.00046  -0.00046   2.24029
    A7        2.23982   0.00018   0.00000   0.00068   0.00068   2.24050
    A8        1.95088  -0.00030   0.00000  -0.00080  -0.00080   1.95008
    A9        2.09249   0.00012   0.00000   0.00013   0.00013   2.09261
   A10        1.83121   0.00025   0.00000   0.00057   0.00057   1.83178
   A11        1.96863  -0.00001   0.00000   0.00006   0.00006   1.96869
   A12        2.23300   0.00004   0.00000   0.00039   0.00039   2.23339
   A13        2.08155  -0.00003   0.00000  -0.00045  -0.00045   2.08110
    D1        0.00000   0.00000   0.00000   0.00000   0.00000   0.00000
    D2        3.14159   0.00000   0.00000   0.00000   0.00000   3.14159
    D3        3.14159   0.00000   0.00000   0.00000   0.00000   3.14159
    D4        0.00000   0.00000   0.00000   0.00000   0.00000   0.00000
    D5        3.14159   0.00000   0.00000   0.00000   0.00000   3.14159
    D6        0.00000   0.00000   0.00000   0.00000   0.00000   0.00000
    D7        0.00000   0.00000   0.00000   0.00000   0.00000   0.00000
    D8        3.14159   0.00000   0.00000   0.00000   0.00000   3.14159
    D9        3.14159   0.00000   0.00000   0.00000   0.00000   3.14159
   D10        0.00000   0.00000   0.00000   0.00000   0.00000   0.00000
   D11        0.00000   0.00000   0.00000   0.00000   0.00000   0.00000
   D12        3.14159   0.00000   0.00000   0.00000   0.00000   3.14159
   D13        0.00000   0.00000   0.00000   0.00000   0.00000   0.00000
   D14        3.14159   0.00000   0.00000   0.00000   0.00000   3.14159
   D15        0.00000   0.00000   0.00000   0.00000   0.00000   0.00000
   D16        3.14159   0.00000   0.00000   0.00000   0.00000   3.14159
         Item               Value     Threshold  Converged?
 Maximum Force            0.000313     0.000450     YES
 RMS     Force            0.000108     0.000300     YES
 Maximum Displacement     0.000842     0.001800     YES
 RMS     Displacement     0.000313     0.001200     YES
 Predicted change in Energy=-5.137745D-07
 Optimization completed.
    -- Stationary point found.
                         ----------------------------
                         !   Optimized Parameters   !
                         ! (Angstroms and Degrees)  !
 ------------------------                            -------------------------
 ! Name  Definition              Value          Derivative Info.             !
 -----------------------------------------------------------------------------
 ! R1    R(1,2)                  1.0725         -DE/DX =    0.               !
 ! R2    R(2,4)                  1.3712         -DE/DX =    0.0002           !
 ! R3    R(2,9)                  1.3494         -DE/DX =   -0.0003           !
 ! R4    R(3,4)                  1.0715         -DE/DX =   -0.0001           !
 ! R5    R(4,6)                  1.4223         -DE/DX =    0.               !
 ! R6    R(5,6)                  1.0735         -DE/DX =    0.               !
 ! R7    R(6,7)                  1.3095         -DE/DX =   -0.0001           !
 ! R8    R(7,9)                  1.3392         -DE/DX =    0.0001           !
 ! R9    R(8,9)                  0.9947         -DE/DX =    0.               !
 ! A1    A(1,2,4)              131.6406         -DE/DX =    0.0001           !
 ! A2    A(1,2,9)              121.7043         -DE/DX =    0.               !
 ! A3    A(4,2,9)              106.6551         -DE/DX =   -0.0001           !
 ! A4    A(2,4,3)              127.7616         -DE/DX =    0.               !
 ! A5    A(2,4,6)              103.8527         -DE/DX =    0.0002           !
 ! A6    A(3,4,6)              128.3857         -DE/DX =   -0.0001           !
 ! A7    A(4,6,5)              128.3323         -DE/DX =    0.0002           !
 ! A8    A(4,6,7)              111.7771         -DE/DX =   -0.0003           !
 ! A9    A(5,6,7)              119.8906         -DE/DX =    0.0001           !
 ! A10   A(6,7,9)              104.9207         -DE/DX =    0.0002           !
 ! A11   A(2,9,7)              112.7944         -DE/DX =    0.               !
 ! A12   A(2,9,8)              127.9415         -DE/DX =    0.               !
 ! A13   A(7,9,8)              119.2641         -DE/DX =    0.               !
 ! D1    D(1,2,4,3)              0.             -DE/DX =    0.               !
 ! D2    D(1,2,4,6)            180.             -DE/DX =    0.               !
 ! D3    D(9,2,4,3)            180.             -DE/DX =    0.               !
 ! D4    D(9,2,4,6)              0.             -DE/DX =    0.               !
 ! D5    D(1,2,9,7)            180.             -DE/DX =    0.               !
 ! D6    D(1,2,9,8)              0.             -DE/DX =    0.               !
 ! D7    D(4,2,9,7)              0.             -DE/DX =    0.               !
 ! D8    D(4,2,9,8)            180.             -DE/DX =    0.               !
 ! D9    D(2,4,6,5)            180.             -DE/DX =    0.               !
 ! D10   D(2,4,6,7)              0.             -DE/DX =    0.               !
 ! D11   D(3,4,6,5)              0.             -DE/DX =    0.               !
 ! D12   D(3,4,6,7)            180.             -DE/DX =    0.               !
 ! D13   D(4,6,7,9)              0.             -DE/DX =    0.               !
 ! D14   D(5,6,7,9)            180.             -DE/DX =    0.               !
 ! D15   D(6,7,9,2)              0.             -DE/DX =    0.               !
 ! D16   D(6,7,9,8)            180.             -DE/DX =    0.               !
 -----------------------------------------------------------------------------
 GradGradGradGradGradGradGradGradGradGradGradGradGradGradGradGradGradGrad

 1\1\GINC-INDIUM\Freq\RHF\CEP-121G(d)\C3H4N2\RDJ3\06-Sep-2000\0\\#N GEO
 M=ALLCHECK GUESS=TCHECK RHF/CEP-121G(D) FREQ\\1H pyrazole C3H4N2 casno
 =288131\\0,1\H,-1.8683848932,0.,-1.1627667536\C,-0.9194966057,0.,-0.66
 2856256\H,0.6807730684,0.,-2.1684957686\C,0.3641935471,0.,-1.144787441
 1\H,2.2393575631,0.,0.1013650924\C,1.1683382211,0.,0.02831087\N,0.4400
 045765,0.,1.1165823122\H,-1.5679655812,0.,1.3472353595\N,-0.827188738,
 0.,0.6834163635\\Version=IBM-RS6000-G98RevA.6\State=1-A'\HF=-38.124174
 1\RMSD=1.762e-09\RMSF=1.369e-04\Dipole=-0.8309689,0.,-0.4839909\Dipole
 Deriv=-0.0282788,0.,-0.0606906,0.,0.203071,0.,-0.0477134,0.,0.0726182,
 0.3055275,0.,-0.1571136,0.,-0.0684797,0.,-0.3998264,0.,0.3633747,0.088
 1869,0.,0.0367363,0.,0.2178424,0.,0.043415,0.,-0.0603927,-0.4202513,0.
 ,-0.0175063,0.,-0.3181451,0.,-0.0759029,0.,-0.0072072,-0.0853907,0.,-0
 .0062548,0.,0.1600535,0.,-0.0386068,0.,0.0750575,0.3470371,0.,0.134890
 2,0.,-0.0518523,0.,0.2931221,0.,0.307118,0.0404124,0.,-0.2623998,0.,-0
 .246466,0.,-0.1252083,0.,-0.7017622,0.2176078,0.,-0.0553087,0.,0.34976
 61,0.,-0.0386262,0.,0.2281204,-0.4648508,0.,0.3876473,0.,-0.2457899,0.
 ,0.3893469,0.,-0.2769266\Polar=49.4987433,0.,24.6932164,-0.9720621,0.,
 45.4878462\PolarDeriv=-7.582428,0.,-0.1069306,-2.9975602,0.,-1.9583318
 ,0.,-0.2315563,0.,0.,-0.3208686,0.,-2.9366575,0.,-0.2311001,-2.4274681
 ,0.,-2.2903848,-3.2786451,0.,-2.7350643,-3.0501755,0.,-4.3958512,0.,-4
 .6853483,0.,0.,-0.6240801,0.,-0.9525396,0.,-0.5695866,3.096572,0.,0.76
 89809,1.413003,0.,-0.0254582,-1.7143382,0.,1.8475392,0.,-0.2206735,0.,
 0.,-0.6687822,0.,-1.3289153,0.,-0.0748686,2.1746064,0.,-8.6848264,2.98
 51484,0.,1.2157682,5.9128971,0.,4.610151,0.,2.8754448,0.,0.,-3.1073859
 ,0.,-2.6084697,0.,-1.7302486,2.683231,0.,0.9524739,10.2162562,0.,0.268
 6865,0.629662,0.,0.8151852,0.,0.9296689,0.,0.,0.3358117,0.,0.472928,0.
 ,-0.0121431,1.3400187,0.,0.0824499,0.082964,0.,2.1508849,-1.8837038,0.
 ,2.1997523,0.,2.8310965,0.,0.,-0.5853468,0.,0.9152091,0.,-0.0449265,-6
 .7174721,0.,-7.8076448,1.963255,0.,-1.3659406,-1.5652255,0.,-2.4254165
 ,0.,0.3467394,0.,0.,3.3966788,0.,1.7765537,0.,1.3943704,5.1010916,0.,1
 4.2905488,-4.9690158,0.,0.0686586,3.2082203,0.,-2.7367781,0.,-0.567178
 6,0.,0.,0.4879427,0.,2.7761703,0.,0.1903628,-3.0714287,0.,4.1969732,-0
 .8305377,0.,0.5293955,1.4602237,0.,2.0437499,0.,-1.278193,0.,0.,1.0860
 304,0.,1.8857211,0.,1.0781402,-2.1791507,0.,-1.5085708\HyperPolar=-16.
 9373294,0.,1.8253651,0.,6.8022149,0.,-15.7751662,6.197364,0.,-53.43404
 78\PG=CS [SG(C3H4N2)]\NImag=0\\0.33444842,0.,0.02744998,0.14606502,0.,
 0.13762504,-0.33111163,0.,-0.12356458,0.96429875,0.,-0.03782208,0.,0.,
 0.15171004,-0.13519679,0.,-0.13725534,0.11465521,0.,0.71906497,0.00038
 050,0.,-0.00104349,0.00347988,0.,0.02950580,0.08672705,0.,-0.00361367,
 0.,0.,-0.00089946,0.,0.,0.02600664,0.00061950,0.,-0.00022272,-0.003167
 88,0.,0.00099492,-0.10137646,0.,0.38089840,-0.00691817,0.,0.00979727,-
 0.38449277,0.,0.06580074,-0.09693245,0.,0.09372174,0.67937487,0.,0.004
 20620,0.,0.,-0.07723117,0.,0.,-0.03200705,0.,0.,0.13657317,-0.01711788
 ,0.,0.01540930,0.11020681,0.,-0.17148374,0.09122112,0.,-0.36890125,-0.
 14685824,0.,0.91263857,-0.00024846,0.,0.00030629,-0.00107720,0.,-0.001
 51541,-0.00018422,0.,-0.00060841,-0.00402913,0.,0.00424803,0.40775288,
 0.,0.00063156,0.,0.,0.00514979,0.,0.,-0.00193419,0.,0.,0.00256538,0.,0
 .,0.03084459,-0.00124909,0.,0.00128702,-0.00377367,0.,-0.00727491,0.00
 109565,0.,0.00009192,-0.02379027,0.,0.00919479,0.02273072,0.,0.0651960
 5,-0.00553835,0.,0.00530645,-0.05863495,0.,-0.00060538,0.01635864,0.,0
 .01338848,-0.19862994,0.,-0.10029283,-0.38712374,0.,-0.03707707,0.9971
 3701,0.,0.00655925,0.,0.,0.01183603,0.,0.,-0.00274955,0.,0.,-0.0772876
 7,0.,0.,-0.04104172,0.,0.,0.17028378,0.00157297,0.,-0.00179468,-0.0834
 3767,0.,0.06045901,-0.01682622,0.,-0.00860503,-0.05232377,0.,-0.241610
 16,-0.02592820,0.,-0.07358719,-0.04649164,0.,0.68844244,0.00080582,0.,
 0.00172589,-0.06749527,0.,-0.04797340,-0.00263295,0.,-0.00162909,0.043
 71663,0.,0.05125126,-0.01438452,0.,0.03330921,-0.22433010,0.,0.1621946
 7,0.58356783,0.,0.00715371,0.,0.,0.01722273,0.,0.,0.00676510,0.,0.,0.0
 2493576,0.,0.,-0.00775943,0.,0.,-0.08416822,0.,0.,0.11856011,0.0023430
 9,0.,-0.00662315,-0.01653123,0.,-0.08465633,-0.00751932,0.,-0.00497646
 ,-0.04456933,0.,-0.08541449,-0.00227045,0.,0.00923905,0.14268621,0.,-0
 .37804529,-0.06586975,0.,0.67543310,-0.00024255,0.,0.00058764,0.013043
 10,0.,-0.00375460,0.00090984,0.,-0.00011196,0.00333687,0.,-0.00371355,
 -0.00050233,0.,0.00168772,-0.00847869,0.,-0.00744453,-0.01964488,0.,0.
 02981769,0.33713889,0.,-0.00194793,0.,0.,-0.00932006,0.,0.,0.00282613,
 0.,0.,0.00328910,0.,0.,0.00253699,0.,0.,0.00451349,0.,0.,-0.01442387,0
 .,0.,0.01294040,-0.00084166,0.,0.00017182,0.02819217,0.,-0.00560835,0.
 00141213,0.,0.00017864,-0.00304807,0.,-0.00797547,-0.00064038,0.,0.001
 17401,-0.00729569,0.,0.00110128,-0.01120942,0.,0.02062336,-0.23232919,
 0.,0.28595591,0.00842442,0.,-0.03918048,-0.13800991,0.,-0.02091617,-0.
 00810629,0.,-0.00083593,-0.03542590,0.,0.01105527,-0.00020328,0.,0.007
 06679,-0.13075987,0.,0.06868439,-0.29960255,0.,-0.03808691,-0.32556025
 ,0.,0.22576009,0.92924363,0.,-0.00261703,0.,0.,-0.06064582,0.,0.,0.005
 60606,0.,0.,0.01495627,0.,0.,0.00900703,0.,0.,0.01205461,0.,0.,-0.0682
 8588,0.,0.,-0.00041425,0.,0.,0.09033900,0.00380484,0.,-0.00859728,-0.0
 2257918,0.,-0.37424022,0.00353080,0.,0.00054158,0.10126993,0.,-0.06185
 756,0.00367781,0.,-0.00532075,0.03038147,0.,-0.04636038,-0.12179938,0.
 ,-0.14557979,0.21526077,0.,-0.29562119,-0.21354706,0.,0.93703560\\0.00
 001204,0.,-0.00000326,0.00027922,0.,-0.00025510,-0.00001697,0.,-0.0000
 7060,-0.00001099,0.,-0.00013309,-0.00003556,0.,-0.00003097,-0.00037568
 ,0.,-0.00006266,0.00007594,0.,0.00030659,-0.00001594,0.,-0.00003921,0.
 00008793,0.,0.00028832\\\@

 THERE'S NOTHING SO GREAT AS THE GREAT OUTDOORS.

                                       -- ZIGGY
 Job cpu time:  0 days  0 hours  6 minutes  1.6 seconds.
 File lengths (MBytes):  RWF=   22 Int=    0 D2E=    0 Chk=    8 Scr=    1
 Normal termination of Gaussian 98.
