 Gaussian 98, Revision A.6,
 Gaussian 98:  IBM-RS6000-G98RevA.6 19-Oct-1998

 ------------------------
 #HF/aug-cc-pVDZ opt freq
 ------------------------

 -------------------------------
 1H pyrazole C3H4N2 casno=288131
 -------------------------------
 Symbolic Z-matrix:
 Charge =  0 Multiplicity = 1

 SCF Done:  E(RHF) =  -224.770099742     A.U. after   14 cycles
 SCF Done:  E(RHF) =  -224.820458539     A.U. after   13 cycles
 SCF Done:  E(RHF) =  -224.827640063     A.U. after   13 cycles
 SCF Done:  E(RHF) =  -224.827845270     A.U. after   11 cycles
 SCF Done:  E(RHF) =  -224.827920029     A.U. after   10 cycles
 SCF Done:  E(RHF) =  -224.827924507     A.U. after   10 cycles
 Optimization completed.
    -- Stationary point found.
 Normal termination of Gaussian 98.

 --------------------------------------------------
 #N Geom=AllCheck Guess=TCheck RHF/Aug-CC-pVDZ Freq
 --------------------------------------------------

 1H pyrazole C3H4N2 casno=288131
 -------------------------------
 Redundant internal coordinates taken from checkpointfile:
 /wrk/rdj3/Gau-15476.chk
 Charge =  0 Multiplicity = 1

                         Standard orientation:
 ---------------------------------------------------------------------
 Center     Atomic     Atomic              Coordinates (Angstroms)
 Number     Number      Type              X           Y           Z
 ---------------------------------------------------------------------
    1          1             0        2.087648    0.724703    0.000000
    2          6             0        1.097955    0.304001    0.000000
    3          1             0        1.260364   -1.886717    0.000000
    4          6             0        0.663410   -0.993048    0.000000
    5          1             0       -1.484247   -1.663217    0.000000
    6          6             0       -0.748928   -0.876935    0.000000
    7          7             0       -1.127623    0.372644    0.000000
    8          1             0       -0.045028    2.069990    0.000000
    9          7             0        0.000000    1.077518    0.000000
 ---------------------------------------------------------------------

 SCF Done:  E(RHF) =  -224.827924507     A.U. after    1 cycles

  The electronic state is 1-A'.
 Alpha  occ. eigenvalues --  -15.64430 -15.59127 -11.28119 -11.25582 -11.22607
 Alpha  occ. eigenvalues --   -1.39304  -1.10926  -1.05804  -0.82821  -0.80981
 Alpha  occ. eigenvalues --   -0.74761  -0.61731  -0.61501  -0.59561  -0.56449
 Alpha  occ. eigenvalues --   -0.45799  -0.36721  -0.34894
 Alpha virt. eigenvalues --    0.03051   0.04279   0.04829   0.06298   0.10304
 Alpha virt. eigenvalues --    0.10422   0.11918   0.12572   0.13168   0.13896
 Alpha virt. eigenvalues --    0.14006   0.15673   0.16580   0.17691   0.17820

  Exact polarizability:  51.598   1.211  53.609   0.000   0.000  33.234
 Approx polarizability:  49.263   0.949  52.167   0.000   0.000  34.232

                     1                      2                      3
                    A"                     A"                     A"
 Frequencies --   564.5222               682.4648               739.4287
 Red. masses --     1.6257                 2.2989                 2.9278
 Frc consts  --     0.3052                 0.6309                 0.9431
 IR Inten    --    75.4567                 0.0731                17.7346
 Raman Activ --     0.0948                 0.0646                 0.1829

                     4                      5                      6
                    A"                     A"                     A'
 Frequencies --   837.5437               971.8188               991.7501
 Red. masses --     1.1899                 1.2909                 5.5176
 Frc consts  --     0.4918                 0.7183                 3.1975
 IR Inten    --   112.6299                 1.1805                14.1472
 Raman Activ --     0.7032                 1.9993                 2.7815

                     7                      8                      9
                    A"                     A'                     A'
 Frequencies --  1005.7382              1009.5557              1114.3918
 Red. masses --     1.3860                 3.8940                 1.5573
 Frc consts  --     0.8260                 2.3383                 1.1395
 IR Inten    --     8.1201                 5.5076                 0.4926
 Raman Activ --     0.1630                 0.8693                 0.7169

                    10                     11                     12
                    A'                     A'                     A'
 Frequencies --  1129.6323              1216.6184              1272.5682
 Red. masses --     1.6178                 1.8599                 2.8925
 Frc consts  --     1.2163                 1.6220                 2.7599
 IR Inten    --    53.5075                28.0082                 2.6059
 Raman Activ --     1.2941                 9.6401                29.2387

                    13                     14                     15
                    A'                     A'                     A'
 Frequencies --  1388.4821              1524.2881              1534.6378
 Red. masses --     1.6190                 2.5817                 3.8115
 Frc consts  --     1.8390                 3.5342                 5.2888
 IR Inten    --     3.7971                 1.3271                35.1127
 Raman Activ --    15.8720                14.3072                43.7923

                    16                     17                     18
                    A'                     A'                     A'
 Frequencies --  1619.7536              1721.8995              3398.8131
 Red. masses --     2.6219                 3.0481                 1.0949
 Frc consts  --     4.0529                 5.3247                 7.4519
 IR Inten    --    11.9800                10.5922                 5.5673
 Raman Activ --     3.8167                 2.2556                88.7006

                    19                     20                     21
                    A'                     A'                     A'
 Frequencies --  3413.5765              3433.9806              3915.9333
 Red. masses --     1.0959                 1.1097                 1.0832
 Frc consts  --     7.5238                 7.7098                 9.7861
 IR Inten    --     2.8748                 0.4651               115.7887
 Raman Activ --    29.0282               117.9994                81.0821

 - Thermochemistry -
 -------------------
 Temperature   298.150 Kelvin.  Pressure   1.00000 Atm.
 Atom  1 has atomic number  1 and mass   1.00783

 Molecular mass:    68.03745 amu.
 Principal axes and moments of inertia in atomic units:
                           1         2         3
     EIGENVALUES --   183.75756 187.77433 371.53189
           X            0.93991   0.34142   0.00000
           Y           -0.34142   0.93991   0.00000
           Z            0.00000   0.00000   1.00000
 THIS MOLECULE IS AN ASYMMETRIC TOP.
 ROTATIONAL SYMMETRY NUMBER  1.
 ROTATIONAL TEMPERATURES (KELVIN)      0.47135     0.46126     0.23313
 ROTATIONAL CONSTANTS (GHZ)            9.82132     9.61122     4.85757
 Zero-point vibrational energy     200299.1 (Joules/Mol)
                                   47.87264 (Kcal/Mol)
 WARNING-- EXPLICIT CONSIDERATION OF   1 DEGREES OF FREEDOM AS
           VIBRATIONS MAY CAUSE SIGNIFICANT ERROR
 VIBRATIONAL TEMPERATURES:    812.22   981.91  1063.87  1205.03  1398.22
          (KELVIN)           1426.90  1447.02  1452.52  1603.35  1625.28
                             1750.43  1830.93  1997.70  2193.10  2207.99
                             2330.45  2477.42  4890.11  4911.35  4940.70
                             5634.12

 Zero-point correction=                           0.076290 (Hartree/Particle)
 Thermal correction to Energy=                    0.079835
 Thermal correction to Enthalpy=                  0.080779
 Thermal correction to Gibbs Free Energy=         0.050116
 Sum of electronic and zero-point Energies=           -224.751635
 Sum of electronic and thermal Energies=              -224.748090
 Sum of electronic and thermal Enthalpies=            -224.747145
 Sum of electronic and thermal Free Energies=         -224.777809

                     E (Thermal)             CV                S
                      KCAL/MOL        CAL/MOL-KELVIN    CAL/MOL-KELVIN
 TOTAL                   50.097             12.021             64.537
 ELECTRONIC               0.000              0.000              0.000
 TRANSLATIONAL            0.889              2.981             38.570
 ROTATIONAL               0.889              2.981             24.065
 VIBRATIONAL             48.320              6.059              1.901
 VIBRATION  1             0.920              1.108              0.515
                       Q            LOG10(Q)             LN(Q)
 TOTAL BOT       0.888170D-23        -23.051504        -53.078050
 TOTAL V=0       0.109442D+13         12.039183         27.721243
 VIB (BOT)       0.993403D-35        -35.002875        -80.597098
 VIB (BOT)  1    0.274105D+00         -0.562083         -1.294244
 VIB (V=0)       0.122409D+01          0.087812          0.202195
 VIB (V=0)  1    0.107020D+01          0.029467          0.067850
 ELECTRONIC      0.100000D+01          0.000000          0.000000
 TRANSLATIONAL   0.220588D+08          7.343582         16.909224
 ROTATIONAL      0.405311D+05          4.607788         10.609824
 ***** Axes restored to original set *****
 -------------------------------------------------------------------
 Center     Atomic                   Forces (Hartrees/Bohr)
 Number     Number              X              Y              Z
 -------------------------------------------------------------------
    1          1           0.000014771    0.000000000    0.000003553
    2          6          -0.000346485    0.000000000    0.000209944
    3          1           0.000000084    0.000000000    0.000091538
    4          6           0.000043307    0.000000000    0.000123866
    5          1           0.000005537    0.000000000    0.000023864
    6          6           0.000331053    0.000000000    0.000048298
    7          7           0.000004483    0.000000000   -0.000202606
    8          1           0.000012576    0.000000000    0.000036060
    9          7          -0.000065325    0.000000000   -0.000334516
 -------------------------------------------------------------------
 Cartesian Forces:  Max     0.000346485 RMS     0.000130693

 GradGradGradGradGradGradGradGradGradGradGradGradGradGradGradGradGradGrad
 Berny optimization.
 Internal  Forces:  Max     0.000289737 RMS     0.000098396
 Search for a local minimum.
 Step number   1 out of a maximum of  48
 All quantities printed in internal units (Hartrees-Bohrs-Radians)
 Second derivative matrix not updated -- analytic derivatives used.
     Eigenvalues ---    0.00834   0.01400   0.02054   0.03352   0.06622
     Eigenvalues ---    0.07123   0.10684   0.12000   0.12662   0.13624
     Eigenvalues ---    0.25639   0.29011   0.39157   0.40569   0.41036
     Eigenvalues ---    0.41239   0.46836   0.47375   0.54440   0.57164
     Eigenvalues ---    0.669721000.000001000.000001000.000001000.00000
     Eigenvalues --- 1000.000001000.000001000.000001000.000001000.00000
     Eigenvalues --- 1000.000001000.000001000.000001000.000001000.00000
     Eigenvalues --- 1000.000001000.000001000.00000
 Angle between quadratic step and forces=  26.62 degrees.
 Linear search not attempted -- first point.
 Iteration  1 RMS(Cart)=  0.00027678 RMS(Int)=  0.00000006
 Iteration  2 RMS(Cart)=  0.00000006 RMS(Int)=  0.00000001
 Variable       Old X    -DE/DX   Delta X   Delta X   Delta X     New X
                                 (Linear)    (Quad)   (Total)
    R1        2.03221  -0.00001   0.00000  -0.00006  -0.00006   2.03214
    R2        2.58497   0.00022   0.00000   0.00039   0.00039   2.58536
    R3        2.53803  -0.00029   0.00000  -0.00051  -0.00051   2.53752
    R4        2.03090  -0.00009   0.00000  -0.00018  -0.00018   2.03073
    R5        2.67794   0.00001   0.00000  -0.00002  -0.00002   2.67791
    R6        2.03436   0.00001   0.00000  -0.00002  -0.00002   2.03434
    R7        2.46742  -0.00011   0.00000  -0.00004  -0.00004   2.46738
    R8        2.51297   0.00012   0.00000   0.00004   0.00004   2.51301
    R9        1.87743   0.00001   0.00000   0.00003   0.00003   1.87746
    A1        2.29601   0.00006   0.00000   0.00005   0.00005   2.29606
    A2        2.12591   0.00007   0.00000   0.00037   0.00037   2.12628
    A3        1.86127  -0.00014   0.00000  -0.00042  -0.00042   1.86084
    A4        2.22941  -0.00006   0.00000  -0.00011  -0.00011   2.22930
    A5        1.81204   0.00018   0.00000   0.00053   0.00053   1.81257
    A6        2.24174  -0.00012   0.00000  -0.00041  -0.00041   2.24132
    A7        2.24069   0.00015   0.00000   0.00054   0.00054   2.24122
    A8        1.94709  -0.00025   0.00000  -0.00065  -0.00065   1.94643
    A9        2.09541   0.00010   0.00000   0.00011   0.00011   2.09553
   A10        1.83521   0.00017   0.00000   0.00037   0.00037   1.83558
   A11        1.96918   0.00003   0.00000   0.00018   0.00018   1.96935
   A12        2.22988   0.00002   0.00000   0.00029   0.00029   2.23017
   A13        2.08413  -0.00005   0.00000  -0.00047  -0.00047   2.08366
    D1        0.00000   0.00000   0.00000   0.00000   0.00000   0.00000
    D2        3.14159   0.00000   0.00000   0.00000   0.00000   3.14159
    D3        3.14159   0.00000   0.00000   0.00000   0.00000   3.14159
    D4        0.00000   0.00000   0.00000   0.00000   0.00000   0.00000
    D5        3.14159   0.00000   0.00000   0.00000   0.00000   3.14159
    D6        0.00000   0.00000   0.00000   0.00000   0.00000   0.00000
    D7        0.00000   0.00000   0.00000   0.00000   0.00000   0.00000
    D8        3.14159   0.00000   0.00000   0.00000   0.00000   3.14159
    D9        3.14159   0.00000   0.00000   0.00000   0.00000   3.14159
   D10        0.00000   0.00000   0.00000   0.00000   0.00000   0.00000
   D11        0.00000   0.00000   0.00000   0.00000   0.00000   0.00000
   D12        3.14159   0.00000   0.00000   0.00000   0.00000   3.14159
   D13        0.00000   0.00000   0.00000   0.00000   0.00000   0.00000
   D14        3.14159   0.00000   0.00000   0.00000   0.00000   3.14159
   D15        0.00000   0.00000   0.00000   0.00000   0.00000   0.00000
   D16        3.14159   0.00000   0.00000   0.00000   0.00000   3.14159
         Item               Value     Threshold  Converged?
 Maximum Force            0.000290     0.000450     YES
 RMS     Force            0.000098     0.000300     YES
 Maximum Displacement     0.000677     0.001800     YES
 RMS     Displacement     0.000277     0.001200     YES
 Predicted change in Energy=-4.232658D-07
 Optimization completed.
    -- Stationary point found.
                         ----------------------------
                         !   Optimized Parameters   !
                         ! (Angstroms and Degrees)  !
 ------------------------                            -------------------------
 ! Name  Definition              Value          Derivative Info.             !
 -----------------------------------------------------------------------------
 ! R1    R(1,2)                  1.0754         -DE/DX =    0.               !
 ! R2    R(2,4)                  1.3679         -DE/DX =    0.0002           !
 ! R3    R(2,9)                  1.3431         -DE/DX =   -0.0003           !
 ! R4    R(3,4)                  1.0747         -DE/DX =   -0.0001           !
 ! R5    R(4,6)                  1.4171         -DE/DX =    0.               !
 ! R6    R(5,6)                  1.0765         -DE/DX =    0.               !
 ! R7    R(6,7)                  1.3057         -DE/DX =   -0.0001           !
 ! R8    R(7,9)                  1.3298         -DE/DX =    0.0001           !
 ! R9    R(8,9)                  0.9935         -DE/DX =    0.               !
 ! A1    A(1,2,4)              131.5517         -DE/DX =    0.0001           !
 ! A2    A(1,2,9)              121.8055         -DE/DX =    0.0001           !
 ! A3    A(4,2,9)              106.6428         -DE/DX =   -0.0001           !
 ! A4    A(2,4,3)              127.7356         -DE/DX =   -0.0001           !
 ! A5    A(2,4,6)              103.8223         -DE/DX =    0.0002           !
 ! A6    A(3,4,6)              128.4421         -DE/DX =   -0.0001           !
 ! A7    A(4,6,5)              128.3818         -DE/DX =    0.0001           !
 ! A8    A(4,6,7)              111.5598         -DE/DX =   -0.0002           !
 ! A9    A(5,6,7)              120.0584         -DE/DX =    0.0001           !
 ! A10   A(6,7,9)              105.1496         -DE/DX =    0.0002           !
 ! A11   A(2,9,7)              112.8256         -DE/DX =    0.               !
 ! A12   A(2,9,8)              127.7627         -DE/DX =    0.               !
 ! A13   A(7,9,8)              119.4117         -DE/DX =    0.               !
 ! D1    D(1,2,4,3)              0.             -DE/DX =    0.               !
 ! D2    D(1,2,4,6)            180.             -DE/DX =    0.               !
 ! D3    D(9,2,4,3)            180.             -DE/DX =    0.               !
 ! D4    D(9,2,4,6)              0.             -DE/DX =    0.               !
 ! D5    D(1,2,9,7)            180.             -DE/DX =    0.               !
 ! D6    D(1,2,9,8)              0.             -DE/DX =    0.               !
 ! D7    D(4,2,9,7)              0.             -DE/DX =    0.               !
 ! D8    D(4,2,9,8)            180.             -DE/DX =    0.               !
 ! D9    D(2,4,6,5)            180.             -DE/DX =    0.               !
 ! D10   D(2,4,6,7)              0.             -DE/DX =    0.               !
 ! D11   D(3,4,6,5)              0.             -DE/DX =    0.               !
 ! D12   D(3,4,6,7)            180.             -DE/DX =    0.               !
 ! D13   D(4,6,7,9)              0.             -DE/DX =    0.               !
 ! D14   D(5,6,7,9)            180.             -DE/DX =    0.               !
 ! D15   D(6,7,9,2)              0.             -DE/DX =    0.               !
 ! D16   D(6,7,9,8)            180.             -DE/DX =    0.               !
 -----------------------------------------------------------------------------
 GradGradGradGradGradGradGradGradGradGradGradGradGradGradGradGradGradGrad

 1\1\GINC-PLUMBUM\Freq\RHF\Aug-CC-pVDZ\C3H4N2\RDJ3\28-Jul-2001\0\\#N GE
 OM=ALLCHECK GUESS=TCHECK RHF/AUG-CC-PVDZ FREQ\\1H pyrazole C3H4N2 casn
 o=288131\\0,1\H,-1.8799997585,0.,-1.1614943036\C,-0.9289221603,0.,-0.6
 595646498\H,0.6674940523,0.,-2.1685643408\C,0.3513050172,0.,-1.1414213
 534\H,2.2268966873,0.,0.1010399219\C,1.152896101,0.,0.027181267\N,0.42
 28995705,0.,1.1097533777\H,-1.5768938171,0.,1.341749432\N,-0.835638272
 1,0.,0.6802605805\\Version=IBM-RS6000-G98RevA.6\State=1-A'\HF=-224.827
 9245\RMSD=1.441e-09\RMSF=1.307e-04\Dipole=-0.7802402,0.,-0.5008349\Dip
 oleDeriv=-0.0023987,0.,-0.043755,0.,0.1970828,0.,-0.035179,0.,0.076553
 ,0.2837324,0.,-0.1832936,0.,-0.0793862,0.,-0.4066193,0.,0.3238268,0.08
 94289,0.,0.0230057,0.,0.2061389,0.,0.0336683,0.,-0.0353081,-0.4149325,
 0.,0.0066953,0.,-0.2852247,0.,-0.0709507,0.,-0.0358661,-0.0545427,0.,-
 0.0062771,0.,0.15859,0.,-0.0366621,0.,0.0788551,0.3070499,0.,0.1598659
 ,0.,-0.0626827,0.,0.2834849,0.,0.2851624,0.017447,0.,-0.2703081,0.,-0.
 2433345,0.,-0.1223639,0.,-0.6770263,0.2301142,0.,-0.0724443,0.,0.32454
 25,0.,-0.0575711,0.,0.2427335,-0.4558985,0.,0.3865111,0.,-0.215726,0.,
 0.4121929,0.,-0.2589303\Polar=53.9934806,0.,33.2342987,-0.7388008,0.,5
 1.2136112\PolarDeriv=-7.4198922,0.,-0.5328345,-2.8748431,0.,-2.0079955
 ,0.,0.2939725,0.,0.,0.0811718,0.,-2.9380211,0.,-0.5138095,-2.3642956,0
 .,-2.2314756,-3.7521555,0.,-6.094928,-2.5806419,0.,-5.6574664,0.,-4.51
 57963,0.,0.,-1.7671679,0.,-1.6898054,0.,0.6718531,3.157687,0.,1.451593
 9,1.4803665,0.,0.1585105,-1.6889646,0.,1.8848424,0.,-0.3165951,0.,0.,0
 .1181853,0.,-1.4354894,0.,-0.5480105,2.128095,0.,-8.5656205,3.1914586,
 0.,3.4246176,5.9818015,0.,5.4023246,0.,2.2974273,0.,0.,-3.2787337,0.,-
 3.3382709,0.,-4.6932816,2.2519843,0.,0.7196911,10.0037895,0.,0.7781328
 ,0.5240806,0.,0.8882177,0.,0.2349445,0.,0.,0.2273713,0.,0.4310961,0.,-
 0.1301406,1.2223302,0.,-0.0058857,1.1910103,0.,4.4888602,-1.379856,0.,
 4.2444496,0.,3.5938045,0.,0.,-0.5425018,0.,-0.3759678,0.,0.5516198,-6.
 8618135,0.,-6.9153907,0.1363341,0.,-1.9852803,-1.9272718,0.,-1.7810785
 ,0.,0.3474144,0.,0.,3.009556,0.,3.2250332,0.,2.7111013,4.4818511,0.,12
 .7909851,-5.0953878,0.,-0.724322,2.9645851,0.,-2.7614302,0.,-0.42744,0
 .,0.,0.2188129,0.,2.9381852,0.,0.6025507,-2.8107016,0.,4.1754115,0.264
 4764,0.,0.4872436,0.9811102,0.,-0.2118638,0.,-1.5077319,0.,0.,1.933306
 1,0.,3.18324,0.,1.3481172,-1.2051368,0.,-1.419309\HyperPolar=-11.27534
 21,0.,10.0981013,0.,-0.799784,0.,-47.4121252,11.9983822,0.,-24.7131254
 \PG=CS [SG(C3H4N2)]\NImag=0\\0.33213149,0.,0.02732068,0.14568640,0.,0.
 13701430,-0.32876332,0.,-0.12328190,0.97687354,0.,-0.03809755,0.,0.,0.
 15631062,-0.13442452,0.,-0.13743738,0.11249844,0.,0.73216431,0.0004143
 4,0.,-0.00112919,0.00411438,0.,0.02920229,0.08558803,0.,-0.00347518,0.
 ,0.,-0.00116549,0.,0.,0.02514177,0.00062364,0.,-0.00028405,-0.00387496
 ,0.,0.00023333,-0.10082256,0.,0.37947115,-0.00646311,0.,0.00981320,-0.
 39697301,0.,0.07091767,-0.09648092,0.,0.09289668,0.69532195,0.,0.00427
 248,0.,0.,-0.07909048,0.,0.,-0.03085336,0.,0.,0.13700764,-0.01764840,0
 .,0.01530385,0.11677547,0.,-0.17197633,0.09035976,0.,-0.36731523,-0.14
 706959,0.,0.92341550,-0.00022739,0.,0.00031020,-0.00096671,0.,-0.00172
 938,-0.00025488,0.,-0.00059503,-0.00407372,0.,0.00496119,0.40474731,0.
 ,0.00063492,0.,0.,0.00507157,0.,0.,-0.00176861,0.,0.,0.00249322,0.,0.,
 0.03060731,-0.00117530,0.,0.00119483,-0.00391503,0.,-0.00665957,0.0011
 7866,0.,0.00011151,-0.02345246,0.,0.00930465,0.02253169,0.,0.06418035,
 -0.00550240,0.,0.00517879,-0.06120755,0.,-0.00151843,0.01601740,0.,0.0
 1425871,-0.20141824,0.,-0.10717573,-0.38384969,0.,-0.03673844,1.004501
 53,0.,0.00640661,0.,0.,0.01229225,0.,0.,-0.00291931,0.,0.,-0.07864176,
 0.,0.,-0.04111636,0.,0.,0.17278138,0.00142419,0.,-0.00128034,-0.083144
 86,0.,0.05916933,-0.01630274,0.,-0.00827477,-0.05835228,0.,-0.24862438
 ,-0.02579332,0.,-0.07277015,-0.04527928,0.,0.69891070,0.00105294,0.,0.
 00192937,-0.06922127,0.,-0.04871157,-0.00227561,0.,-0.00176775,0.04372
 124,0.,0.05129821,-0.01491197,0.,0.03276405,-0.22673494,0.,0.16551014,
 0.59120695,0.,0.00709944,0.,0.,0.01935605,0.,0.,0.00651295,0.,0.,0.025
 75796,0.,0.,-0.00747902,0.,0.,-0.08662613,0.,0.,0.12241152,0.00243606,
 0.,-0.00674249,-0.01996916,0.,-0.08626664,-0.00742362,0.,-0.00492947,-
 0.04397583,0.,-0.08805183,-0.00287231,0.,0.00888743,0.14721698,0.,-0.3
 8335170,-0.06695292,0.,0.68907912,-0.00024848,0.,0.00062382,0.01249574
 ,0.,-0.00313991,0.00088095,0.,-0.00010749,0.00369692,0.,-0.00365757,-0
 .00050353,0.,0.00153461,-0.00797423,0.,-0.00781737,-0.02068833,0.,0.03
 020963,0.33736023,0.,-0.00202936,0.,0.,-0.00845731,0.,0.,0.00254102,0.
 ,0.,0.00384949,0.,0.,0.00233334,0.,0.,0.00437834,0.,0.,-0.01343511,0.,
 0.,0.01382439,-0.00095815,0.,0.00030228,0.02873552,0.,-0.00470893,0.00
 136021,0.,0.00017241,-0.00292259,0.,-0.00808255,-0.00061052,0.,0.00110
 255,-0.00733154,0.,0.00133700,-0.01149537,0.,0.02028614,-0.23197285,0.
 ,0.28450622,0.00760592,0.,-0.03913068,-0.13635179,0.,-0.02309459,-0.00
 800369,0.,-0.00061123,-0.03733111,0.,0.01215665,0.00004057,0.,0.007272
 22,-0.13383188,0.,0.06975553,-0.30214900,0.,-0.03866882,-0.32501927,0.
 ,0.22519528,0.93504024,0.,-0.00213205,0.,0.,-0.06621966,0.,0.,0.005986
 20,0.,0.,0.01520482,0.,0.,0.00922364,0.,0.,0.01344498,0.,0.,-0.0735976
 6,0.,0.,-0.00300480,0.,0.,0.10109453,0.00403608,0.,-0.00807101,-0.0238
 2351,0.,-0.38451813,0.00357719,0.,0.00081512,0.10214520,0.,-0.06397369
 ,0.00379748,0.,-0.00535160,0.03138894,0.,-0.04511570,-0.12257416,0.,-0
 .14891055,0.21432713,0.,-0.29491512,-0.21287435,0.,0.95004067\\-0.0000
 1477,0.,-0.00000355,0.00034648,0.,-0.00020994,-0.00000008,0.,-0.000091
 54,-0.00004331,0.,-0.00012387,-0.00000554,0.,-0.00002386,-0.00033105,0
 .,-0.00004830,-0.00000448,0.,0.00020261,-0.00001258,0.,-0.00003606,0.0
 0006532,0.,0.00033452\\\@

 ERWIN WITH HIS PSI CAN DO
 CALCULATIONS QUITE A FEW.
 BUT ONE THING HAS NOT BEEN SEEN
 JUST WHAT DOES PSI REALLY MEAN.
 -- WALTER HUCKEL, TRANS. BY FELIX BLOCH
 Job cpu time:  0 days  1 hours 13 minutes 54.2 seconds.
 File lengths (MBytes):  RWF=   27 Int=    0 D2E=    0 Chk=    4 Scr=    1
 Normal termination of Gaussian 98.
