 Gaussian 98, Revision A.6,
 Gaussian 98:  IBM-RS6000-G98RevA.6 19-Oct-1998

 --------------------
 #HF/LANL2DZ opt freq
 --------------------

 -------------------------------
 1H pyrazole C3H4N2 casno=288131
 -------------------------------
 Symbolic Z-matrix:
 Charge =  0 Multiplicity = 1

 SCF Done:  E(RHF) =  -224.655143686     A.U. after   14 cycles
 SCF Done:  E(RHF) =  -224.711821049     A.U. after   14 cycles
 SCF Done:  E(RHF) =  -224.720947880     A.U. after   14 cycles
 SCF Done:  E(RHF) =  -224.721248931     A.U. after   12 cycles
 SCF Done:  E(RHF) =  -224.721348208     A.U. after   11 cycles
 SCF Done:  E(RHF) =  -224.721354008     A.U. after   11 cycles
 SCF Done:  E(RHF) =  -224.721355137     A.U. after    9 cycles
 Optimization completed.
    -- Stationary point found.
 Normal termination of Gaussian 98.

 ----------------------------------------------
 #N Geom=AllCheck Guess=TCheck RHF/LANL2DZ Freq
 ----------------------------------------------

 1H pyrazole C3H4N2 casno=288131
 -------------------------------
 Redundant internal coordinates taken from checkpointfile:
 /wrk/rdj3/Gau-17320.chk
 Charge =  0 Multiplicity = 1

                         Standard orientation:
 ---------------------------------------------------------------------
 Center     Atomic     Atomic              Coordinates (Angstroms)
 Number     Number      Type              X           Y           Z
 ---------------------------------------------------------------------
    1          1             0        2.096130    0.714070    0.000000
    2          6             0        1.110413    0.309908    0.000000
    3          1             0        1.262352   -1.878391    0.000000
    4          6             0        0.670508   -0.993290    0.000000
    5          1             0       -1.470618   -1.682771    0.000000
    6          6             0       -0.751720   -0.896569    0.000000
    7          7             0       -1.144002    0.366099    0.000000
    8          1             0       -0.055050    2.086050    0.000000
    9          7             0        0.000000    1.096866    0.000000
 ---------------------------------------------------------------------

 SCF Done:  E(RHF) =  -224.721355137     A.U. after    1 cycles

  The electronic state is 1-A'.
 Alpha  occ. eigenvalues --  -15.63677 -15.60075 -11.29368 -11.26587 -11.23653
 Alpha  occ. eigenvalues --   -1.39507  -1.11732  -1.06342  -0.83527  -0.81014
 Alpha  occ. eigenvalues --   -0.75250  -0.62479  -0.61286  -0.59694  -0.57478
 Alpha  occ. eigenvalues --   -0.45224  -0.37597  -0.35229
 Alpha virt. eigenvalues --    0.14955   0.21136   0.22714   0.27249   0.28372
 Alpha virt. eigenvalues --    0.31917   0.33512   0.38460   0.39842   0.47941
 Alpha virt. eigenvalues --    0.50329   0.51299   0.53423   0.54219   0.59626

  Exact polarizability:  43.705   1.948  46.847   0.000   0.000  17.555
 Approx polarizability:  41.608   1.080  45.197   0.000   0.000  16.210

                     1                      2                      3
                    A"                     A"                     A"
 Frequencies --   675.7882               714.0976               743.6696
 Red. masses --     3.3474                 2.2897                 1.4290
 Frc consts  --     0.9007                 0.6879                 0.4656
 IR Inten    --    46.7896                24.1527               118.7206
 Raman Activ --     2.1279                 0.0749                 0.0808

                     4                      5                      6
                    A"                     A"                     A'
 Frequencies --   878.2983              1006.9076              1012.3852
 Red. masses --     1.1989                 1.2933                 5.3174
 Frc consts  --     0.5449                 0.7726                 3.2110
 IR Inten    --   130.6060                 4.5552                20.7290
 Raman Activ --     0.1857                 1.6820                 4.9885

                     7                      8                      9
                    A'                     A"                     A'
 Frequencies --  1020.8964              1051.1533              1120.0108
 Red. masses --     5.3793                 1.4465                 1.9763
 Frc consts  --     3.3032                 0.9417                 1.4607
 IR Inten    --     3.4323                 0.3892                58.7197
 Raman Activ --     5.4232                 2.5401                 1.6880

                    10                     11                     12
                    A'                     A'                     A'
 Frequencies --  1144.2454              1216.3790              1266.4145
 Red. masses --     1.5678                 2.3128                 2.1013
 Frc consts  --     1.2094                 2.0162                 1.9856
 IR Inten    --     2.6106                31.2664                 0.7242
 Raman Activ --     2.2335                13.3492                21.2397

                    13                     14                     15
                    A'                     A'                     A'
 Frequencies --  1396.3602              1526.8289              1533.4627
 Red. masses --     1.7063                 2.4143                 2.9666
 Frc consts  --     1.9602                 3.3161                 4.1102
 IR Inten    --     2.2865                 4.2545                20.0040
 Raman Activ --     9.4387                16.4092                44.3311

                    16                     17                     18
                    A'                     A'                     A'
 Frequencies --  1594.1800              1713.4296              3480.0538
 Red. masses --     2.3060                 2.7133                 1.0935
 Frc consts  --     3.4528                 4.6933                 7.8025
 IR Inten    --    22.5469                14.8341                 2.0940
 Raman Activ --     4.6405                 2.1455                82.1880

                    19                     20                     21
                    A'                     A'                     A'
 Frequencies --  3488.6890              3510.1231              3967.0547
 Red. masses --     1.1002                 1.1110                 1.0843
 Frc consts  --     7.8894                 8.0649                10.0536
 IR Inten    --     8.3026                 1.9806               123.0706
 Raman Activ --    11.1075               127.9078                77.2754

 - Thermochemistry -
 -------------------
 Temperature   298.150 Kelvin.  Pressure   1.00000 Atm.
 Atom  1 has atomic number  1 and mass   1.00783

 Molecular mass:    68.03745 amu.
 Principal axes and moments of inertia in atomic units:
                           1         2         3
     EIGENVALUES --   187.99819 190.99771 378.99590
           X            0.98911   0.14718   0.00000
           Y           -0.14718   0.98911   0.00000
           Z            0.00000   0.00000   1.00000
 THIS MOLECULE IS AN ASYMMETRIC TOP.
 ROTATIONAL SYMMETRY NUMBER  1.
 ROTATIONAL TEMPERATURES (KELVIN)      0.46071     0.45348     0.22853
 ROTATIONAL CONSTANTS (GHZ)            9.59978     9.44902     4.76190
 Zero-point vibrational energy     203726.6 (Joules/Mol)
                                   48.69183 (Kcal/Mol)
 VIBRATIONAL TEMPERATURES:    972.30  1027.42  1069.97  1263.67  1448.71
          (KELVIN)           1456.59  1468.83  1512.37  1611.44  1646.30
                             1750.09  1822.08  2009.04  2196.75  2206.30
                             2293.66  2465.23  5006.99  5019.42  5050.26
                             5707.67

 Zero-point correction=                           0.077595 (Hartree/Particle)
 Thermal correction to Energy=                    0.081042
 Thermal correction to Enthalpy=                  0.081986
 Thermal correction to Gibbs Free Energy=         0.051433
 Sum of electronic and zero-point Energies=           -224.643760
 Sum of electronic and thermal Energies=              -224.640313
 Sum of electronic and thermal Enthalpies=            -224.639369
 Sum of electronic and thermal Free Energies=         -224.669922

                     E (Thermal)             CV                S
                      KCAL/MOL        CAL/MOL-KELVIN    CAL/MOL-KELVIN
 TOTAL                   50.855             11.530             64.304
 ELECTRONIC               0.000              0.000              0.000
 TRANSLATIONAL            0.889              2.981             38.570
 ROTATIONAL               0.889              2.981             24.124
 VIBRATIONAL             49.077              5.568              1.610
                       Q            LOG10(Q)             LN(Q)
 TOTAL BOT       0.220060D-23        -23.657460        -54.473314
 TOTAL V=0       0.108067D+13         12.033693         27.708602
 VIB (BOT)       0.238891D-35        -35.621800        -82.022225
 VIB (V=0)       0.117315D+01          0.069353          0.159691
 ELECTRONIC      0.100000D+01          0.000000          0.000000
 TRANSLATIONAL   0.220588D+08          7.343582         16.909224
 ROTATIONAL      0.417597D+05          4.620758         10.639687
 ***** Axes restored to original set *****
 -------------------------------------------------------------------
 Center     Atomic                   Forces (Hartrees/Bohr)
 Number     Number              X              Y              Z
 -------------------------------------------------------------------
    1          1          -0.000001860    0.000000000   -0.000029511
    2          6          -0.000075085    0.000000000    0.000245055
    3          1          -0.000012377    0.000000000   -0.000028589
    4          6           0.000155154    0.000000000   -0.000031815
    5          1           0.000016122    0.000000000    0.000000689
    6          6          -0.000046240    0.000000000   -0.000159710
    7          7          -0.000109178    0.000000000    0.000173057
    8          1          -0.000012770    0.000000000    0.000010069
    9          7           0.000086233    0.000000000   -0.000179244
 -------------------------------------------------------------------
 Cartesian Forces:  Max     0.000245055 RMS     0.000086543

 GradGradGradGradGradGradGradGradGradGradGradGradGradGradGradGradGradGrad
 Berny optimization.
 Internal  Forces:  Max     0.000140767 RMS     0.000042856
 Search for a local minimum.
 Step number   1 out of a maximum of  48
 All quantities printed in internal units (Hartrees-Bohrs-Radians)
 Second derivative matrix not updated -- analytic derivatives used.
     Eigenvalues ---    0.01224   0.01584   0.02250   0.03457   0.06814
     Eigenvalues ---    0.07507   0.11179   0.12313   0.12776   0.13953
     Eigenvalues ---    0.26631   0.29538   0.37758   0.42424   0.42616
     Eigenvalues ---    0.42841   0.45226   0.47584   0.55784   0.57860
     Eigenvalues ---    0.648901000.000001000.000001000.000001000.00000
     Eigenvalues --- 1000.000001000.000001000.000001000.000001000.00000
     Eigenvalues --- 1000.000001000.000001000.000001000.000001000.00000
     Eigenvalues --- 1000.000001000.000001000.00000
 Angle between quadratic step and forces=  24.69 degrees.
 Linear search not attempted -- first point.
 Iteration  1 RMS(Cart)=  0.00010358 RMS(Int)=  0.00000001
 Iteration  2 RMS(Cart)=  0.00000001 RMS(Int)=  0.00000000
 Variable       Old X    -DE/DX   Delta X   Delta X   Delta X     New X
                                 (Linear)    (Quad)   (Total)
    R1        2.01323   0.00002   0.00000   0.00004   0.00004   2.01327
    R2        2.59921   0.00009   0.00000   0.00029   0.00029   2.59949
    R3        2.57192  -0.00013   0.00000  -0.00043  -0.00043   2.57149
    R4        2.01208   0.00002   0.00000   0.00005   0.00005   2.01212
    R5        2.69383  -0.00006   0.00000  -0.00022  -0.00022   2.69360
    R6        2.01318   0.00002   0.00000   0.00004   0.00004   2.01322
    R7        2.49860   0.00014   0.00000   0.00033   0.00033   2.49892
    R8        2.56527  -0.00005   0.00000  -0.00008  -0.00008   2.56519
    R9        1.87218   0.00002   0.00000   0.00004   0.00004   1.87222
    A1        2.28546  -0.00004   0.00000  -0.00029  -0.00029   2.28516
    A2        2.13593   0.00001   0.00000   0.00023   0.00023   2.13616
    A3        1.86179   0.00004   0.00000   0.00007   0.00007   1.86186
    A4        2.22665   0.00001   0.00000  -0.00013  -0.00013   2.22652
    A5        1.82844  -0.00006   0.00000  -0.00016  -0.00016   1.82829
    A6        2.22809   0.00005   0.00000   0.00029   0.00029   2.22838
    A7        2.24360  -0.00001   0.00000   0.00001   0.00001   2.24361
    A8        1.93992   0.00002   0.00000   0.00011   0.00011   1.94003
    A9        2.09966  -0.00001   0.00000  -0.00012  -0.00012   2.09954
   A10        1.83802  -0.00006   0.00000  -0.00020  -0.00020   1.83782
   A11        1.95660   0.00005   0.00000   0.00018   0.00018   1.95678
   A12        2.24294  -0.00003   0.00000  -0.00010  -0.00010   2.24283
   A13        2.08365  -0.00003   0.00000  -0.00008  -0.00008   2.08357
    D1        0.00000   0.00000   0.00000   0.00000   0.00000   0.00000
    D2        3.14159   0.00000   0.00000   0.00000   0.00000   3.14159
    D3        3.14159   0.00000   0.00000   0.00000   0.00000   3.14159
    D4        0.00000   0.00000   0.00000   0.00000   0.00000   0.00000
    D5        3.14159   0.00000   0.00000   0.00000   0.00000   3.14159
    D6        0.00000   0.00000   0.00000   0.00000   0.00000   0.00000
    D7        0.00000   0.00000   0.00000   0.00000   0.00000   0.00000
    D8        3.14159   0.00000   0.00000   0.00000   0.00000   3.14159
    D9        3.14159   0.00000   0.00000   0.00000   0.00000   3.14159
   D10        0.00000   0.00000   0.00000   0.00000   0.00000   0.00000
   D11        0.00000   0.00000   0.00000   0.00000   0.00000   0.00000
   D12        3.14159   0.00000   0.00000   0.00000   0.00000   3.14159
   D13        0.00000   0.00000   0.00000   0.00000   0.00000   0.00000
   D14        3.14159   0.00000   0.00000   0.00000   0.00000   3.14159
   D15        0.00000   0.00000   0.00000   0.00000   0.00000   0.00000
   D16        3.14159   0.00000   0.00000   0.00000   0.00000   3.14159
         Item               Value     Threshold  Converged?
 Maximum Force            0.000141     0.000450     YES
 RMS     Force            0.000043     0.000300     YES
 Maximum Displacement     0.000338     0.001800     YES
 RMS     Displacement     0.000104     0.001200     YES
 Predicted change in Energy=-1.084211D-07
 Optimization completed.
    -- Stationary point found.
                         ----------------------------
                         !   Optimized Parameters   !
                         ! (Angstroms and Degrees)  !
 ------------------------                            -------------------------
 ! Name  Definition              Value          Derivative Info.             !
 -----------------------------------------------------------------------------
 ! R1    R(1,2)                  1.0654         -DE/DX =    0.               !
 ! R2    R(2,4)                  1.3754         -DE/DX =    0.0001           !
 ! R3    R(2,9)                  1.361          -DE/DX =   -0.0001           !
 ! R4    R(3,4)                  1.0647         -DE/DX =    0.               !
 ! R5    R(4,6)                  1.4255         -DE/DX =   -0.0001           !
 ! R6    R(5,6)                  1.0653         -DE/DX =    0.               !
 ! R7    R(6,7)                  1.3222         -DE/DX =    0.0001           !
 ! R8    R(7,9)                  1.3575         -DE/DX =    0.               !
 ! R9    R(8,9)                  0.9907         -DE/DX =    0.               !
 ! A1    A(1,2,4)              130.947          -DE/DX =    0.               !
 ! A2    A(1,2,9)              122.38           -DE/DX =    0.               !
 ! A3    A(4,2,9)              106.673          -DE/DX =    0.               !
 ! A4    A(2,4,3)              127.5779         -DE/DX =    0.               !
 ! A5    A(2,4,6)              104.762          -DE/DX =   -0.0001           !
 ! A6    A(3,4,6)              127.6601         -DE/DX =    0.               !
 ! A7    A(4,6,5)              128.5491         -DE/DX =    0.               !
 ! A8    A(4,6,7)              111.1493         -DE/DX =    0.               !
 ! A9    A(5,6,7)              120.3016         -DE/DX =    0.               !
 ! A10   A(6,7,9)              105.3108         -DE/DX =   -0.0001           !
 ! A11   A(2,9,7)              112.1049         -DE/DX =    0.0001           !
 ! A12   A(2,9,8)              128.5108         -DE/DX =    0.               !
 ! A13   A(7,9,8)              119.3843         -DE/DX =    0.               !
 ! D1    D(1,2,4,3)              0.             -DE/DX =    0.               !
 ! D2    D(1,2,4,6)            180.             -DE/DX =    0.               !
 ! D3    D(9,2,4,3)            180.             -DE/DX =    0.               !
 ! D4    D(9,2,4,6)              0.             -DE/DX =    0.               !
 ! D5    D(1,2,9,7)            180.             -DE/DX =    0.               !
 ! D6    D(1,2,9,8)              0.             -DE/DX =    0.               !
 ! D7    D(4,2,9,7)              0.             -DE/DX =    0.               !
 ! D8    D(4,2,9,8)            180.             -DE/DX =    0.               !
 ! D9    D(2,4,6,5)            180.             -DE/DX =    0.               !
 ! D10   D(2,4,6,7)              0.             -DE/DX =    0.               !
 ! D11   D(3,4,6,5)              0.             -DE/DX =    0.               !
 ! D12   D(3,4,6,7)            180.             -DE/DX =    0.               !
 ! D13   D(4,6,7,9)              0.             -DE/DX =    0.               !
 ! D14   D(5,6,7,9)            180.             -DE/DX =    0.               !
 ! D15   D(6,7,9,2)              0.             -DE/DX =    0.               !
 ! D16   D(6,7,9,8)            180.             -DE/DX =    0.               !
 -----------------------------------------------------------------------------
 GradGradGradGradGradGradGradGradGradGradGradGradGradGradGradGradGradGrad

 1\1\GINC-FERRUM\Freq\RHF\LANL2DZ\C3H4N2\RDJ3\05-Sep-2000\0\\#N GEOM=AL
 LCHECK GUESS=TCHECK RHF/LANL2DZ FREQ\\1H pyrazole C3H4N2 casno=288131\
 \0,1\H,-1.8728607652,0.,-1.1815457378\C,-0.9389617737,0.,-0.6688868707
 \H,0.667582613,0.,-2.1624566248\C,0.3511448424,0.,-1.1458200814\H,2.23
 31611677,0.,0.086177907\C,1.1698168517,0.,0.0211694187\N,0.4342809164,
 0.,1.1198972951\H,-1.5879136883,0.,1.3539442949\N,-0.8531336092,0.,0.6
 894034708\\Version=IBM-RS6000-G98RevA.6\State=1-A'\HF=-224.7213551\RMS
 D=2.103e-09\RMSF=8.654e-05\Dipole=-0.840128,0.,-0.5996766\DipoleDeriv=
 -0.0073589,0.,-0.0606425,0.,0.2337276,0.,-0.0510787,0.,0.0920961,0.241
 8833,0.,-0.1693464,0.,-0.0717399,0.,-0.419489,0.,0.3337276,0.1072709,0
 .,0.0433534,0.,0.2358819,0.,0.0430201,0.,-0.0528638,-0.3935731,0.,-0.0
 257102,0.,-0.324601,0.,-0.0483301,0.,-0.0042316,-0.0618329,0.,-0.00862
 65,0.,0.177574,0.,-0.0272756,0.,0.1007561,0.2871254,0.,0.1161639,0.,-0
 .0506597,0.,0.2758536,0.,0.2344131,0.1229338,0.,-0.2473057,0.,-0.24652
 99,0.,-0.092883,0.,-0.6075714,0.2576469,0.,-0.048532,0.,0.4196803,0.,-
 0.0529581,0.,0.2498924,-0.5540954,0.,0.400646,0.,-0.3733333,0.,0.37314
 08,0.,-0.3462184\Polar=47.5102035,0.,17.5547227,-1.1272795,0.,43.04225
 87\PolarDeriv=-7.2948795,0.,-0.560236,-2.8949604,0.,-1.9037621,0.,0.19
 0548,0.,0.,-0.1081831,0.,-2.7136205,0.,0.1772463,-2.5074333,0.,-2.3263
 25,-4.6448696,0.,0.6629743,-4.0822563,0.,-4.9761802,0.,-7.3220079,0.,0
 .,-1.3242889,0.,-1.1989763,0.,-0.6792112,2.9610426,0.,0.8440089,1.3987
 5,0.,0.0436764,-1.5254436,0.,1.7161996,0.,-0.3305319,0.,0.,-0.3343195,
 0.,-1.3842667,0.,-0.4313482,2.0874983,0.,-8.2206172,3.317985,0.,0.2508
 275,6.3971514,0.,5.4590236,0.,3.9940921,0.,0.,-4.6514454,0.,-2.2522824
 ,0.,0.7882451,3.6927738,0.,-0.2429415,9.737532,0.,0.3575826,0.5905475,
 0.,0.7769662,0.,0.5778194,0.,0.,0.1306071,0.,0.4628617,0.,0.8686732,1.
 3764268,0.,0.1699645,1.4908402,0.,-0.6529064,-2.2432922,0.,1.6512938,0
 .,4.3664577,0.,0.,0.0750004,0.,0.8876606,0.,-2.0309604,-7.2811006,0.,-
 8.8073735,2.6403666,0.,-0.2728772,-1.0440661,0.,-2.1898943,0.,-0.05330
 91,0.,0.,4.0175754,0.,2.06485,0.,0.8124492,5.5221396,0.,16.1407002,-4.
 8870635,0.,-0.0520121,3.2578055,0.,-2.6138709,0.,-0.7654836,0.,0.,0.59
 55059,0.,2.5097197,0.,0.2149402,-3.0506785,0.,4.1241592,-1.7586613,0.,
 0.2229708,1.5445142,0.,2.0802243,0.,-0.6575847,0.,0.,1.5995481,0.,1.62
 40539,0.,0.2799658,-2.8006688,0.,-1.6815756\HyperPolar=-29.4664533,0.,
 2.4289424,0.,18.901264,0.,-17.3644369,4.5109826,0.,-21.2692743\PG=CS [
 SG(C3H4N2)]\NImag=0\\0.34115085,0.,0.02911114,0.15432847,0.,0.14736439
 ,-0.34092454,0.,-0.13584993,1.00046944,0.,-0.04199952,0.,0.,0.16933763
 ,-0.14743738,0.,-0.14551574,0.12329460,0.,0.72120798,0.00035687,0.,-0.
 00101407,0.00318654,0.,0.03105905,0.09136920,0.,-0.00389921,0.,0.,0.00
 099665,0.,0.,0.02844351,0.00074513,0.,-0.00004279,-0.00678996,0.,0.001
 40615,-0.10544771,0.,0.39479264,-0.00594556,0.,0.01299198,-0.40037253,
 0.,0.07767392,-0.10028088,0.,0.09982710,0.70901344,0.,0.00530023,0.,0.
 ,-0.08824068,0.,0.,-0.03769032,0.,0.,0.15702061,-0.01852975,0.,0.01444
 599,0.10622002,0.,-0.17241185,0.09698398,0.,-0.38613424,-0.15182248,0.
 ,0.94830681,-0.00043043,0.,0.00011656,-0.00013150,0.,-0.00031844,-0.00
 015502,0.,-0.00076061,-0.00242763,0.,0.00651254,0.42529008,0.,0.000477
 49,0.,0.,0.00532912,0.,0.,-0.00198779,0.,0.,0.00293061,0.,0.,0.0318041
 4,-0.00097942,0.,0.00117882,-0.00375809,0.,-0.00701678,0.00112690,0.,0
 .00016186,-0.02511485,0.,0.00858427,0.02113200,0.,0.06567070,-0.004211
 11,0.,0.00540977,-0.06653250,0.,-0.00850745,0.01494609,0.,0.01526843,-
 0.20186293,0.,-0.09544063,-0.41068433,0.,-0.03527328,1.02959249,0.,0.0
 0743915,0.,0.,0.01486301,0.,0.,-0.00103955,0.,0.,-0.08668145,0.,0.,-0.
 04321588,0.,0.,0.17989542,0.00104429,0.,-0.00200393,-0.07509417,0.,0.0
 5210799,-0.01999575,0.,-0.00785944,-0.06430975,0.,-0.24824334,-0.02257
 622,0.,-0.07147716,-0.04311835,0.,0.68659713,0.00120166,0.,0.00256256,
 -0.06493053,0.,-0.04415248,-0.00272627,0.,-0.00111297,0.03462016,0.,0.
 03957236,-0.01218411,0.,0.03429754,-0.22177414,0.,0.17733157,0.5628133
 5,0.,0.00597861,0.,0.,0.02035595,0.,0.,0.00626727,0.,0.,0.02745891,0.,
 0.,-0.00700468,0.,0.,-0.08674115,0.,0.,0.12019482,0.00332348,0.,-0.004
 98392,-0.02294950,0.,-0.08702240,-0.00699572,0.,-0.00359281,-0.0399711
 2,0.,-0.09147505,-0.00647358,0.,0.00713199,0.13333689,0.,-0.36093088,-
 0.08303966,0.,0.65452950,-0.00020157,0.,0.00051853,0.01388756,0.,-0.01
 045850,0.00095389,0.,-0.00002440,0.00197092,0.,-0.00397152,-0.00051047
 ,0.,0.00154465,-0.00755112,0.,-0.00659579,-0.01765566,0.,0.03116189,0.
 34407390,0.,-0.00191708,0.,0.,-0.00513818,0.,0.,0.00214978,0.,0.,0.004
 18431,0.,0.,0.00175029,0.,0.,0.00546458,0.,0.,-0.01041608,0.,0.,0.0187
 0506,-0.00090602,0.,0.00016684,0.02984527,0.,-0.00612047,0.00109999,0.
 ,0.00018972,-0.00312618,0.,-0.00702456,-0.00051049,0.,0.00112889,-0.00
 840372,0.,0.00114717,-0.01573222,0.,0.01818155,-0.23747856,0.,0.294368
 05,0.00900383,0.,-0.03906386,-0.14465193,0.,-0.02115333,-0.00765041,0.
 ,-0.00170501,-0.03471498,0.,0.02047548,0.00123342,0.,0.00702455,-0.131
 92245,0.,0.05331417,-0.27936447,0.,-0.00839269,-0.33496745,0.,0.235211
 93,0.92303443,0.,-0.00049081,0.,0.,-0.07550397,0.,0.,0.00675967,0.,0.,
 0.01571778,0.,0.,0.00991670,0.,0.,0.01001587,0.,0.,-0.07609365,0.,0.,-
 0.01478268,0.,0.,0.12446111,0.00841119,0.,-0.01060965,-0.01491824,0.,-
 0.35663489,0.00318333,0.,0.00107891,0.09385139,0.,-0.06604804,0.002878
 22,0.,-0.00536260,0.03672834,0.,-0.04933754,-0.10972669,0.,-0.13183798
 ,0.22530371,0.,-0.30203720,-0.24571125,0.,0.92078899\\0.00000186,0.,0.
 00002951,0.00007508,0.,-0.00024505,0.00001238,0.,0.00002859,-0.0001551
 5,0.,0.00003181,-0.00001612,0.,-0.00000069,0.00004624,0.,0.00015971,0.
 00010918,0.,-0.00017306,0.00001277,0.,-0.00001007,-0.00008623,0.,0.000
 17924\\\@

 IT IS THE BEHAVIOR AND DISTRIBUTION OF THE ELECTRONS
 AROUND THE NUCLEUS THAT GIVES THE FUNDAMENTAL
 CHARACTER OF AN ATOM:  IT MUST BE THE SAME FOR MOLECULES.

                               -- C. A. COULSON, 1951
 Job cpu time:  0 days  0 hours  1 minutes  7.0 seconds.
 File lengths (MBytes):  RWF=   17 Int=    0 D2E=    0 Chk=    8 Scr=    1
 Normal termination of Gaussian 98.
