 Gaussian 98, Revision A.6,
 Gaussian 98:  IBM-RS6000-G98RevA.6 19-Oct-1998

 ---------------------
 #HF/CEP-31G* opt freq
 ---------------------

 -------------------------------
 1H pyrazole C3H4N2 casno=288131
 -------------------------------
 Symbolic Z-matrix:
 Charge =  0 Multiplicity = 1

 SCF Done:  E(RHF) =  -38.0393339152     A.U. after   14 cycles
 SCF Done:  E(RHF) =  -38.1002208817     A.U. after   13 cycles
 SCF Done:  E(RHF) =  -38.1113730638     A.U. after   13 cycles
 SCF Done:  E(RHF) =  -38.1116228579     A.U. after   11 cycles
 SCF Done:  E(RHF) =  -38.1116833220     A.U. after   11 cycles
 SCF Done:  E(RHF) =  -38.1116862774     A.U. after    9 cycles
 Optimization completed.
    -- Stationary point found.
 Normal termination of Gaussian 98.

 -------------------------------------------------
 #N Geom=AllCheck Guess=TCheck RHF/CEP-31G(d) Freq
 -------------------------------------------------

 1H pyrazole C3H4N2 casno=288131
 -------------------------------
 Redundant internal coordinates taken from checkpointfile:
 /wrk/rdj3/Gau-17890.chk
 Charge =  0 Multiplicity = 1

                         Standard orientation:
 ---------------------------------------------------------------------
 Center     Atomic     Atomic              Coordinates (Angstroms)
 Number     Number      Type              X           Y           Z
 ---------------------------------------------------------------------
    1          1             0        2.093228    0.709395    0.000000
    2          6             0        1.101605    0.291527    0.000000
    3          1             0        1.244156   -1.917782    0.000000
    4          6             0        0.654403   -1.019266    0.000000
    5          1             0       -1.515968   -1.664522    0.000000
    6          6             0       -0.771510   -0.885887    0.000000
    7          7             0       -1.143902    0.375046    0.000000
    8          1             0       -0.039900    2.073618    0.000000
    9          7             0        0.000000    1.075713    0.000000
 ---------------------------------------------------------------------

 SCF Done:  E(RHF) =  -38.1116862774     A.U. after    1 cycles

  The electronic state is 1-A'.
 Alpha  occ. eigenvalues --   -1.38718  -1.10862  -1.05346  -0.82647  -0.80544
 Alpha  occ. eigenvalues --   -0.74208  -0.61154  -0.60538  -0.59293  -0.55842
 Alpha  occ. eigenvalues --   -0.45201  -0.36144  -0.34117
 Alpha virt. eigenvalues --    0.16265   0.21725   0.22626   0.27265   0.28178
 Alpha virt. eigenvalues --    0.31509   0.31858   0.38536   0.38964   0.40168
 Alpha virt. eigenvalues --    0.46356   0.47449   0.51286   0.52982   0.56020

  Exact polarizability:  45.128   1.801  47.843   0.000   0.000  21.605
 Approx polarizability:  44.044   1.084  47.018   0.000   0.000  22.665

                     1                      2                      3
                    A"                     A"                     A"
 Frequencies --   546.4532               672.4723               729.1556
 Red. masses --     1.7363                 2.3434                 2.8113
 Frc consts  --     0.3055                 0.6244                 0.8806
 IR Inten    --    90.2786                 0.0053                28.1606
 Raman Activ --     0.3155                 1.1314                 0.3527

                     4                      5                      6
                    A"                     A'                     A"
 Frequencies --   866.4579               975.7530               978.3470
 Red. masses --     1.1868                 5.6835                 1.2604
 Frc consts  --     0.5249                 3.1882                 0.7108
 IR Inten    --   128.7285                13.6443                 4.6962
 Raman Activ --     3.1184                 6.4395                 7.1399

                     7                      8                      9
                    A'                     A"                     A'
 Frequencies --   990.9606              1016.6660              1125.4330
 Red. masses --     4.1638                 1.3590                 1.4728
 Frc consts  --     2.4091                 0.8276                 1.0991
 IR Inten    --     4.6844                 1.9289                 1.0568
 Raman Activ --     3.0730                 1.5322                 0.8574

                    10                     11                     12
                    A'                     A'                     A'
 Frequencies --  1133.1993              1224.3344              1273.2514
 Red. masses --     1.6221                 1.8914                 2.6232
 Frc consts  --     1.2272                 1.6705                 2.5056
 IR Inten    --    57.9802                24.7936                 3.3732
 Raman Activ --     1.5255                 8.7927                22.0869

                    13                     14                     15
                    A'                     A'                     A'
 Frequencies --  1386.4445              1528.0164              1548.5619
 Red. masses --     1.5673                 2.7158                 4.0008
 Frc consts  --     1.7751                 3.7360                 5.6527
 IR Inten    --     4.7291                 1.0424                33.7911
 Raman Activ --     8.9223                 8.0790                42.7789

                    16                     17                     18
                    A'                     A'                     A'
 Frequencies --  1613.1823              1726.4777              3437.0452
 Red. masses --     2.6225                 3.3279                 1.0957
 Frc consts  --     4.0210                 5.8445                 7.6261
 IR Inten    --    16.9605                14.3900                11.8000
 Raman Activ --     3.6543                 2.2312                82.8546

                    19                     20                     21
                    A'                     A'                     A'
 Frequencies --  3447.6511              3467.8637              3934.1100
 Red. masses --     1.0958                 1.1088                 1.0832
 Frc consts  --     7.6739                 7.8568                 9.8777
 IR Inten    --     9.6822                 3.8552               111.0611
 Raman Activ --    26.9308               106.9007                82.5426

 - Thermochemistry -
 -------------------
 Temperature   298.150 Kelvin.  Pressure   1.00000 Atm.
 Atom  1 has atomic number  1 and mass   1.00783

 Molecular mass:    68.03745 amu.
 Principal axes and moments of inertia in atomic units:
                           1         2         3
     EIGENVALUES --   186.66807 191.12458 377.79264
           X            0.94025   0.34047   0.00000
           Y           -0.34047   0.94025   0.00000
           Z            0.00000   0.00000   1.00000
 THIS MOLECULE IS AN ASYMMETRIC TOP.
 ROTATIONAL SYMMETRY NUMBER  1.
 ROTATIONAL TEMPERATURES (KELVIN)      0.46400     0.45318     0.22926
 ROTATIONAL CONSTANTS (GHZ)            9.66818     9.44275     4.77707
 Zero-point vibrational energy     201103.3 (Joules/Mol)
                                   48.06483 (Kcal/Mol)
 WARNING-- EXPLICIT CONSIDERATION OF   1 DEGREES OF FREEDOM AS
           VIBRATIONS MAY CAUSE SIGNIFICANT ERROR
 VIBRATIONAL TEMPERATURES:    786.22   967.53  1049.09  1246.63  1403.88
          (KELVIN)           1407.62  1425.76  1462.75  1619.24  1630.41
                             1761.53  1831.91  1994.77  2198.46  2228.02
                             2321.00  2484.00  4945.11  4960.37  4989.45
                             5660.27

 Zero-point correction=                           0.076596 (Hartree/Particle)
 Thermal correction to Energy=                    0.080154
 Thermal correction to Enthalpy=                  0.081098
 Thermal correction to Gibbs Free Energy=         0.050391
 Sum of electronic and zero-point Energies=            -38.035090
 Sum of electronic and thermal Energies=               -38.031532
 Sum of electronic and thermal Enthalpies=             -38.030588
 Sum of electronic and thermal Free Energies=          -38.061295

                     E (Thermal)             CV                S
                      KCAL/MOL        CAL/MOL-KELVIN    CAL/MOL-KELVIN
 TOTAL                   50.298             12.055             64.629
 ELECTRONIC               0.000              0.000              0.000
 TRANSLATIONAL            0.889              2.981             38.570
 ROTATIONAL               0.889              2.981             24.115
 VIBRATIONAL             48.520              6.093              1.944
 VIBRATION  1             0.902              1.147              0.552
                       Q            LOG10(Q)             LN(Q)
 TOTAL BOT       0.663525D-23        -23.178142        -53.369645
 TOTAL V=0       0.113089D+13         12.053420         27.754025
 VIB (BOT)       0.723779D-35        -35.140394        -80.913748
 VIB (BOT)  1    0.288163D+00         -0.540362         -1.244230
 VIB (V=0)       0.123358D+01          0.091168          0.209922
 VIB (V=0)  1    0.107709D+01          0.032254          0.074267
 ELECTRONIC      0.100000D+01          0.000000          0.000000
 TRANSLATIONAL   0.220588D+08          7.343582         16.909224
 ROTATIONAL      0.415594D+05          4.618669         10.634879
 ***** Axes restored to original set *****
 -------------------------------------------------------------------
 Center     Atomic                   Forces (Hartrees/Bohr)
 Number     Number              X              Y              Z
 -------------------------------------------------------------------
    1          1          -0.000041139    0.000000000   -0.000056229
    2          6          -0.000116129    0.000000000    0.000119835
    3          1          -0.000004389    0.000000000   -0.000019774
    4          6          -0.000043128    0.000000000    0.000115216
    5          1           0.000031053    0.000000000    0.000086450
    6          6          -0.000404948    0.000000000   -0.000011617
    7          7           0.000095994    0.000000000    0.000267365
    8          1           0.000085326    0.000000000    0.000090131
    9          7           0.000397360    0.000000000   -0.000591377
 -------------------------------------------------------------------
 Cartesian Forces:  Max     0.000591377 RMS     0.000174751

 GradGradGradGradGradGradGradGradGradGradGradGradGradGradGradGradGradGrad
 Berny optimization.
 Internal  Forces:  Max     0.000334856 RMS     0.000114722
 Search for a local minimum.
 Step number   1 out of a maximum of  48
 All quantities printed in internal units (Hartrees-Bohrs-Radians)
 Second derivative matrix not updated -- analytic derivatives used.
     Eigenvalues ---    0.00808   0.01485   0.02113   0.03470   0.06393
     Eigenvalues ---    0.06985   0.10709   0.11904   0.12662   0.13654
     Eigenvalues ---    0.25779   0.29519   0.39875   0.41411   0.41844
     Eigenvalues ---    0.42065   0.46879   0.47720   0.54933   0.57527
     Eigenvalues ---    0.668151000.000001000.000001000.000001000.00000
     Eigenvalues --- 1000.000001000.000001000.000001000.000001000.00000
     Eigenvalues --- 1000.000001000.000001000.000001000.000001000.00000
     Eigenvalues --- 1000.000001000.000001000.00000
 Angle between quadratic step and forces=  28.83 degrees.
 Linear search not attempted -- first point.
 Iteration  1 RMS(Cart)=  0.00036176 RMS(Int)=  0.00000010
 Iteration  2 RMS(Cart)=  0.00000011 RMS(Int)=  0.00000002
 Variable       Old X    -DE/DX   Delta X   Delta X   Delta X     New X
                                 (Linear)    (Quad)   (Total)
    R1        2.03348   0.00006   0.00000   0.00012   0.00012   2.03360
    R2        2.61723  -0.00014   0.00000   0.00003   0.00003   2.61726
    R3        2.55531  -0.00018   0.00000  -0.00045  -0.00045   2.55486
    R4        2.03103   0.00002   0.00000   0.00004   0.00004   2.03107
    R5        2.70635   0.00000   0.00000  -0.00016  -0.00016   2.70619
    R6        2.03573   0.00004   0.00000   0.00012   0.00012   2.03585
    R7        2.48456  -0.00021   0.00000  -0.00013  -0.00013   2.48443
    R8        2.53494  -0.00011   0.00000  -0.00014  -0.00014   2.53480
    R9        1.88727   0.00000   0.00000   0.00002   0.00002   1.88730
    A1        2.29840   0.00006   0.00000   0.00007   0.00007   2.29847
    A2        2.12414   0.00013   0.00000   0.00042   0.00042   2.12456
    A3        1.86065  -0.00019   0.00000  -0.00049  -0.00049   1.86016
    A4        2.23197   0.00000   0.00000   0.00001   0.00001   2.23198
    A5        1.80631  -0.00002   0.00000   0.00002   0.00002   1.80633
    A6        2.24490   0.00002   0.00000  -0.00002  -0.00002   2.24488
    A7        2.24049   0.00001   0.00000   0.00031   0.00031   2.24080
    A8        1.95123   0.00016   0.00000   0.00035   0.00035   1.95158
    A9        2.09146  -0.00016   0.00000  -0.00066  -0.00066   2.09081
   A10        1.83321  -0.00029   0.00000  -0.00071  -0.00071   1.83250
   A11        1.97338   0.00033   0.00000   0.00083   0.00083   1.97421
   A12        2.22940  -0.00005   0.00000   0.00033   0.00033   2.22973
   A13        2.08041  -0.00028   0.00000  -0.00117  -0.00117   2.07925
    D1        0.00000   0.00000   0.00000   0.00000   0.00000   0.00000
    D2        3.14159   0.00000   0.00000   0.00000   0.00000   3.14159
    D3        3.14159   0.00000   0.00000   0.00000   0.00000   3.14159
    D4        0.00000   0.00000   0.00000   0.00000   0.00000   0.00000
    D5        3.14159   0.00000   0.00000   0.00000   0.00000   3.14159
    D6        0.00000   0.00000   0.00000   0.00000   0.00000   0.00000
    D7        0.00000   0.00000   0.00000   0.00000   0.00000   0.00000
    D8        3.14159   0.00000   0.00000   0.00000   0.00000   3.14159
    D9        3.14159   0.00000   0.00000   0.00000   0.00000   3.14159
   D10        0.00000   0.00000   0.00000   0.00000   0.00000   0.00000
   D11        0.00000   0.00000   0.00000   0.00000   0.00000   0.00000
   D12        3.14159   0.00000   0.00000   0.00000   0.00000   3.14159
   D13        0.00000   0.00000   0.00000   0.00000   0.00000   0.00000
   D14        3.14159   0.00000   0.00000   0.00000   0.00000   3.14159
   D15        0.00000   0.00000   0.00000   0.00000   0.00000   0.00000
   D16        3.14159   0.00000   0.00000   0.00000   0.00000   3.14159
         Item               Value     Threshold  Converged?
 Maximum Force            0.000335     0.000450     YES
 RMS     Force            0.000115     0.000300     YES
 Maximum Displacement     0.001440     0.001800     YES
 RMS     Displacement     0.000362     0.001200     YES
 Predicted change in Energy=-6.224598D-07
 Optimization completed.
    -- Stationary point found.
                         ----------------------------
                         !   Optimized Parameters   !
                         ! (Angstroms and Degrees)  !
 ------------------------                            -------------------------
 ! Name  Definition              Value          Derivative Info.             !
 -----------------------------------------------------------------------------
 ! R1    R(1,2)                  1.0761         -DE/DX =    0.0001           !
 ! R2    R(2,4)                  1.385          -DE/DX =   -0.0001           !
 ! R3    R(2,9)                  1.3522         -DE/DX =   -0.0002           !
 ! R4    R(3,4)                  1.0748         -DE/DX =    0.               !
 ! R5    R(4,6)                  1.4321         -DE/DX =    0.               !
 ! R6    R(5,6)                  1.0773         -DE/DX =    0.               !
 ! R7    R(6,7)                  1.3148         -DE/DX =   -0.0002           !
 ! R8    R(7,9)                  1.3414         -DE/DX =   -0.0001           !
 ! R9    R(8,9)                  0.9987         -DE/DX =    0.               !
 ! A1    A(1,2,4)              131.6885         -DE/DX =    0.0001           !
 ! A2    A(1,2,9)              121.7041         -DE/DX =    0.0001           !
 ! A3    A(4,2,9)              106.6074         -DE/DX =   -0.0002           !
 ! A4    A(2,4,3)              127.8826         -DE/DX =    0.               !
 ! A5    A(2,4,6)              103.4942         -DE/DX =    0.               !
 ! A6    A(3,4,6)              128.6232         -DE/DX =    0.               !
 ! A7    A(4,6,5)              128.3707         -DE/DX =    0.               !
 ! A8    A(4,6,7)              111.7974         -DE/DX =    0.0002           !
 ! A9    A(5,6,7)              119.8319         -DE/DX =   -0.0002           !
 ! A10   A(6,7,9)              105.0349         -DE/DX =   -0.0003           !
 ! A11   A(2,9,7)              113.0661         -DE/DX =    0.0003           !
 ! A12   A(2,9,8)              127.7351         -DE/DX =   -0.0001           !
 ! A13   A(7,9,8)              119.1988         -DE/DX =   -0.0003           !
 ! D1    D(1,2,4,3)              0.             -DE/DX =    0.               !
 ! D2    D(1,2,4,6)            180.             -DE/DX =    0.               !
 ! D3    D(9,2,4,3)            180.             -DE/DX =    0.               !
 ! D4    D(9,2,4,6)              0.             -DE/DX =    0.               !
 ! D5    D(1,2,9,7)            180.             -DE/DX =    0.               !
 ! D6    D(1,2,9,8)              0.             -DE/DX =    0.               !
 ! D7    D(4,2,9,7)              0.             -DE/DX =    0.               !
 ! D8    D(4,2,9,8)            180.             -DE/DX =    0.               !
 ! D9    D(2,4,6,5)            180.             -DE/DX =    0.               !
 ! D10   D(2,4,6,7)              0.             -DE/DX =    0.               !
 ! D11   D(3,4,6,5)              0.             -DE/DX =    0.               !
 ! D12   D(3,4,6,7)            180.             -DE/DX =    0.               !
 ! D13   D(4,6,7,9)              0.             -DE/DX =    0.               !
 ! D14   D(5,6,7,9)            180.             -DE/DX =    0.               !
 ! D15   D(6,7,9,2)              0.             -DE/DX =    0.               !
 ! D16   D(6,7,9,8)            180.             -DE/DX =    0.               !
 -----------------------------------------------------------------------------
 GradGradGradGradGradGradGradGradGradGradGradGradGradGradGradGradGradGrad

 1\1\GINC-PLUMBUM\Freq\RHF\CEP-31G(d)\C3H4N2\RDJ3\31-Aug-2000\0\\#N GEO
 M=ALLCHECK GUESS=TCHECK RHF/CEP-31G(D) FREQ\\1H pyrazole C3H4N2 casno=
 288131\\0,1\H,-1.8804357011,0.,-1.1613821251\C,-0.9265656035,0.,-0.663
 3239014\H,0.685442394,0.,-2.1808213509\C,0.3686592795,0.,-1.1537924546
 \H,2.2488100802,0.,0.1079132133\C,1.1743550294,0.,0.0302148423\N,0.439
 7517775,0.,1.1206206116\H,-1.5728253923,0.,1.3519255213\N,-0.829109018
 ,0.,0.6853735476\\Version=IBM-RS6000-G98RevA.6\State=1-A'\HF=-38.11168
 63\RMSD=1.233e-09\RMSF=1.748e-04\Dipole=-0.8256754,0.,-0.495539\Dipole
 Deriv=-0.0388302,0.,-0.0674216,0.,0.2155276,0.,-0.0481083,0.,0.0710065
 ,0.3037461,0.,-0.1551029,0.,-0.0644226,0.,-0.4051073,0.,0.3852922,0.08
 80039,0.,0.0360879,0.,0.2170018,0.,0.0436943,0.,-0.0625125,-0.4076819,
 0.,-0.0203763,0.,-0.3352007,0.,-0.0655205,0.,-0.0200005,-0.0959686,0.,
 -0.0060839,0.,0.1566723,0.,-0.0452391,0.,0.0753771,0.3567324,0.,0.1157
 799,0.,-0.0209708,0.,0.2868589,0.,0.3421417,0.0317535,0.,-0.2406491,0.
 ,-0.2494679,0.,-0.1122404,0.,-0.71231,0.2303245,0.,-0.0653095,0.,0.359
 6193,0.,-0.05388,0.,0.2321065,-0.4680798,0.,0.4030755,0.,-0.2787588,0.
 ,0.3995423,0.,-0.311101\Polar=48.5092426,0.,21.6053303,-0.9945065,0.,4
 4.4612642\PolarDeriv=-7.3122935,0.,0.3708157,-2.7820089,0.,-1.8415217,
 0.,0.6822621,0.,0.,0.2680156,0.,-2.8976078,0.,0.6423648,-2.2070501,0.,
 -1.9629718,-4.072966,0.,-1.9104432,-3.6346625,0.,-4.5111199,0.,-7.3436
 133,0.,0.,-1.3283083,0.,-0.9494553,0.,-0.4287926,2.7682176,0.,0.361515
 2,1.246866,0.,-0.4717044,-1.4393537,0.,1.7729556,0.,-0.6354275,0.,0.,0
 .7909017,0.,-1.3505945,0.,1.305732,2.0778009,0.,-8.2046863,2.9207026,0
 .,1.4685417,5.4993569,0.,4.7199753,0.,4.1745748,0.,0.,-6.5414062,0.,-2
 .2024326,0.,-2.5763944,3.1001145,0.,-0.2939608,9.6981567,0.,-0.5372476
 ,0.93105,0.,0.9633348,0.,-0.0719498,0.,0.,0.0976568,0.,0.4964658,0.,0.
 6861768,1.0960403,0.,0.1372793,1.0841146,0.,1.3595972,-2.1702279,0.,1.
 5421963,0.,4.82392,0.,0.,0.9456325,0.,1.3660545,0.,-0.7185777,-6.26721
 94,0.,-7.7400862,2.1456645,0.,-1.2326616,-1.2886753,0.,-2.6973174,0.,0
 .3076691,0.,0.,3.406427,0.,1.110064,0.,0.5139261,5.229962,0.,14.983887
 5,-5.1566626,0.,0.0363746,3.2836004,0.,-2.8257111,0.,-0.4938256,0.,0.,
 0.3416945,0.,2.4717329,0.,0.178094,-3.1475834,0.,4.2115045,-0.5535823,
 0.,0.9167275,1.600921,0.,2.8772082,0.,-1.4436098,0.,0.,2.0193864,0.,1.
 9557732,0.,0.397471,-2.6502823,0.,-1.4924815\HyperPolar=-31.0948589,0.
 ,3.9825381,0.,20.8533632,0.,-22.1617544,5.8664252,0.,-26.9771433\PG=CS
  [SG(C3H4N2)]\NImag=0\\0.34057480,0.,0.02747612,0.14774804,0.,0.136330
 37,-0.33755496,0.,-0.12533259,0.99051868,0.,-0.03801262,0.,0.,0.150560
 11,-0.13703953,0.,-0.13550781,0.10312502,0.,0.72993805,0.00027765,0.,-
 0.00102694,0.00337990,0.,0.02882302,0.08651120,0.,-0.00330192,0.,0.,-0
 .00065857,0.,0.,0.02745521,0.00062865,0.,-0.00025534,-0.00255391,0.,0.
 00170027,-0.10297449,0.,0.38717481,-0.00614524,0.,0.00976887,-0.409738
 83,0.,0.07859154,-0.09659555,0.,0.09570056,0.70905639,0.,0.00385975,0.
 ,0.,-0.07592886,0.,0.,-0.03520164,0.,0.,0.14037251,-0.01635604,0.,0.01
 523533,0.11984180,0.,-0.17332758,0.09299811,0.,-0.37599882,-0.14545295
 ,0.,0.93589537,-0.00044409,0.,0.00007279,-0.00143502,0.,-0.00068102,-0
 .00036933,0.,-0.00053991,-0.00279294,0.,0.00359893,0.41320199,0.,0.000
 59014,0.,0.,0.00532106,0.,0.,-0.00185362,0.,0.,0.00240544,0.,0.,0.0311
 8193,-0.00118860,0.,0.00142815,-0.00421208,0.,-0.00733230,0.00108023,0
 .,0.00000074,-0.02290793,0.,0.00911112,0.02535186,0.,0.06448035,-0.005
 28569,0.,0.00569727,-0.05528556,0.,-0.00247332,0.01650345,0.,0.0122084
 5,-0.20623535,0.,-0.11147103,-0.39343229,0.,-0.03973797,1.01064432,0.,
 0.00663004,0.,0.,0.01110741,0.,0.,-0.00180828,0.,0.,-0.07696590,0.,0.,
 -0.04146249,0.,0.,0.16895169,0.00089332,0.,-0.00240009,-0.07924040,0.,
 0.06095903,-0.01639736,0.,-0.00820281,-0.06784330,0.,-0.25973108,-0.02
 830297,0.,-0.07265685,-0.04040844,0.,0.71553835,0.00070410,0.,0.001560
 82,-0.06567783,0.,-0.04453022,-0.00253476,0.,-0.00154002,0.04254412,0.
 ,0.05047245,-0.01372622,0.,0.03272335,-0.23042589,0.,0.17254922,0.6001
 9159,0.,0.00713381,0.,0.,0.01703177,0.,0.,0.00663550,0.,0.,0.02453676,
 0.,0.,-0.00792017,0.,0.,-0.08220460,0.,0.,0.11700799,0.00213667,0.,-0.
 00663272,-0.01663116,0.,-0.08294271,-0.00754299,0.,-0.00521914,-0.0426
 5279,0.,-0.08346125,-0.00283152,0.,0.00907659,0.15299877,0.,-0.3872764
 3,-0.07186733,0.,0.68047819,-0.00015181,0.,0.00077442,0.01240158,0.,-0
 .00597683,0.00094128,0.,-0.00020948,0.00334821,0.,-0.00365489,-0.00055
 750,0.,0.00171176,-0.00850428,0.,-0.00690053,-0.01862043,0.,0.02901014
 ,0.33843677,0.,-0.00192301,0.,0.,-0.00870145,0.,0.,0.00274778,0.,0.,0.
 00333086,0.,0.,0.00243161,0.,0.,0.00453277,0.,0.,-0.01381524,0.,0.,0.0
 1358322,-0.00063808,0.,0.00041761,0.02744685,0.,-0.00663641,0.00142843
 ,0.,0.00021560,-0.00275274,0.,-0.00789647,-0.00078851,0.,0.00117061,-0
 .00715841,0.,0.00141991,-0.01089810,0.,0.01977499,-0.23502803,0.,0.287
 45881,0.00802525,0.,-0.03926269,-0.13660795,0.,-0.01983867,-0.00811384
 ,0.,-0.00071986,-0.03344080,0.,0.01002361,-0.00044461,0.,0.00717939,-0
 .12797871,0.,0.06565045,-0.31245469,0.,-0.04261980,-0.32729382,0.,0.22
 838859,0.93830917,0.,-0.00245230,0.,0.,-0.06071886,0.,0.,0.00598555,0.
 ,0.,0.01359108,0.,0.,0.00930611,0.,0.,0.01121936,0.,0.,-0.06840583,0.,
 0.,-0.00218655,0.,0.,0.09366145,0.00381555,0.,-0.00861550,-0.02244353,
 0.,-0.38685053,0.00361198,0.,0.00058471,0.09754875,0.,-0.05982661,0.00
 412034,0.,-0.00527839,0.03034469,0.,-0.04765003,-0.12847018,0.,-0.1437
 9751,0.22027342,0.,-0.29592465,-0.20880102,0.,0.94735852\\0.00004114,0
 .,0.00005623,0.00011613,0.,-0.00011984,0.00000439,0.,0.00001977,0.0000
 4313,0.,-0.00011522,-0.00003105,0.,-0.00008645,0.00040495,0.,0.0000116
 2,-0.00009599,0.,-0.00026736,-0.00008533,0.,-0.00009013,-0.00039736,0.
 ,0.00059138\\\@

 A SOLDIER'S LIFE IS A LIFE OF HONOR, BUT A DOG WOULD NOT LEAD IT.
 -- PRINCE RUPERT, FOUNDER OF THE HUDSON'S BAY COMPANY
 Job cpu time:  0 days  0 hours  2 minutes 16.4 seconds.
 File lengths (MBytes):  RWF=   17 Int=    0 D2E=    0 Chk=    8 Scr=    1
 Normal termination of Gaussian 98.
