 Gaussian 98, Revision A.6,
 Gaussian 98:  IBM-RS6000-G98RevA.6 19-Oct-1998

 ---------------------
 #HF/CEP-121G opt freq
 ---------------------

 -------------------------------
 1H pyrazole C3H4N2 casno=288131
 -------------------------------
 Symbolic Z-matrix:
 Charge =  0 Multiplicity = 1

 SCF Done:  E(RHF) =  -37.9444125164     A.U. after   14 cycles
 SCF Done:  E(RHF) =  -38.0047785961     A.U. after   14 cycles
 SCF Done:  E(RHF) =  -38.0160811235     A.U. after   14 cycles
 SCF Done:  E(RHF) =  -38.0164067837     A.U. after   12 cycles
 SCF Done:  E(RHF) =  -38.0164963083     A.U. after   12 cycles
 SCF Done:  E(RHF) =  -38.0165026734     A.U. after   10 cycles
 SCF Done:  E(RHF) =  -38.0165038440     A.U. after    8 cycles
 Optimization completed.
    -- Stationary point found.
 Normal termination of Gaussian 98.

 -----------------------------------------------
 #N Geom=AllCheck Guess=TCheck RHF/CEP-121G Freq
 -----------------------------------------------

 1H pyrazole C3H4N2 casno=288131
 -------------------------------
 Redundant internal coordinates taken from checkpointfile:
 /wrk/rdj3/Gau-18170.chk
 Charge =  0 Multiplicity = 1

                         Standard orientation:
 ---------------------------------------------------------------------
 Center     Atomic     Atomic              Coordinates (Angstroms)
 Number     Number      Type              X           Y           Z
 ---------------------------------------------------------------------
    1          1             0        2.097640    0.696637    0.000000
    2          6             0        1.108028    0.293781    0.000000
    3          1             0        1.244767   -1.902261    0.000000
    4          6             0        0.657557   -1.010928    0.000000
    5          1             0       -1.497785   -1.684324    0.000000
    6          6             0       -0.769091   -0.903209    0.000000
    7          7             0       -1.156833    0.366950    0.000000
    8          1             0       -0.046432    2.080509    0.000000
    9          7             0        0.000000    1.091222    0.000000
 ---------------------------------------------------------------------

 SCF Done:  E(RHF) =  -38.0165038440     A.U. after    1 cycles

  The electronic state is 1-A'.
 Alpha  occ. eigenvalues --   -1.39890  -1.12338  -1.06860  -0.83796  -0.81130
 Alpha  occ. eigenvalues --   -0.75199  -0.62280  -0.60890  -0.59598  -0.57362
 Alpha  occ. eigenvalues --   -0.45116  -0.37381  -0.35066
 Alpha virt. eigenvalues --    0.14265   0.14827   0.17675   0.18396   0.20402
 Alpha virt. eigenvalues --    0.20962   0.30500   0.31524   0.33616   0.34478
 Alpha virt. eigenvalues --    0.46178   0.47301   0.49619   0.51742   0.53506

  Exact polarizability:  45.591   1.979  48.662   0.000   0.000  23.225
 Approx polarizability:  43.317   1.073  46.898   0.000   0.000  21.864

                     1                      2                      3
                    A"                     A"                     A"
 Frequencies --   654.4468               699.2053               734.4377
 Red. masses --     3.1990                 2.0190                 1.6559
 Frc consts  --     0.8073                 0.5816                 0.5263
 IR Inten    --    60.2979                18.2532                79.9428
 Raman Activ --     1.0050                 0.0153                 0.0443

                     4                      5                      6
                    A"                     A"                     A'
 Frequencies --   865.3357               993.6558              1002.3448
 Red. masses --     1.1920                 1.2825                 5.2993
 Frc consts  --     0.5259                 0.7461                 3.1369
 IR Inten    --   132.7361                 6.1778                18.6793
 Raman Activ --     0.0953                 0.4498                 4.1321

                     7                      8                      9
                    A'                     A"                     A'
 Frequencies --  1011.5507              1030.5719              1113.7357
 Red. masses --     5.3040                 1.4205                 1.8997
 Frc consts  --     3.1977                 0.8889                 1.3884
 IR Inten    --     2.9364                 1.0857                58.1382
 Raman Activ --     4.5506                 2.2539                 1.9144

                    10                     11                     12
                    A'                     A'                     A'
 Frequencies --  1132.9475              1205.8234              1253.3427
 Red. masses --     1.5843                 2.2913                 2.1984
 Frc consts  --     1.1981                 1.9629                 2.0347
 IR Inten    --     3.0359                30.5142                 1.1263
 Raman Activ --     2.5547                14.7332                22.3915

                    13                     14                     15
                    A'                     A'                     A'
 Frequencies --  1382.9492              1507.4054              1517.3101
 Red. masses --     1.7191                 2.7900                 2.6174
 Frc consts  --     1.9371                 3.7352                 3.5504
 IR Inten    --     2.0500                10.5504                18.0946
 Raman Activ --    11.1936                33.3011                29.7658

                    16                     17                     18
                    A'                     A'                     A'
 Frequencies --  1589.5567              1696.3479              3415.9265
 Red. masses --     2.3998                 2.4810                 1.0934
 Frc consts  --     3.5726                 4.2063                 7.5167
 IR Inten    --    18.7475                14.1221                 2.0912
 Raman Activ --     3.1136                 2.1786                88.2750

                    19                     20                     21
                    A'                     A'                     A'
 Frequencies --  3427.3852              3448.6289              3937.2935
 Red. masses --     1.1012                 1.1125                 1.0845
 Frc consts  --     7.6218                 7.7956                 9.9051
 IR Inten    --     8.6620                 2.2192                94.1222
 Raman Activ --    12.5685               133.9351                79.7480

 - Thermochemistry -
 -------------------
 Temperature   298.150 Kelvin.  Pressure   1.00000 Atm.
 Atom  1 has atomic number  1 and mass   1.00783

 Molecular mass:    68.03745 amu.
 Principal axes and moments of inertia in atomic units:
                           1         2         3
     EIGENVALUES --   189.21154 192.66914 381.88068
           X            0.98893   0.14837   0.00000
           Y           -0.14837   0.98893   0.00000
           Z            0.00000   0.00000   1.00000
 THIS MOLECULE IS AN ASYMMETRIC TOP.
 ROTATIONAL SYMMETRY NUMBER  1.
 ROTATIONAL TEMPERATURES (KELVIN)      0.45776     0.44954     0.22681
 ROTATIONAL CONSTANTS (GHZ)            9.53822     9.36705     4.72593
 Zero-point vibrational energy     201093.5 (Joules/Mol)
                                   48.06250 (Kcal/Mol)
 VIBRATIONAL TEMPERATURES:    941.60  1005.99  1056.69  1245.02  1429.64
          (KELVIN)           1442.14  1455.39  1482.75  1602.41  1630.05
                             1734.90  1803.27  1989.74  2168.81  2183.06
                             2287.00  2440.65  4914.73  4931.21  4961.78
                             5664.85

 Zero-point correction=                           0.076592 (Hartree/Particle)
 Thermal correction to Energy=                    0.080072
 Thermal correction to Enthalpy=                  0.081016
 Thermal correction to Gibbs Free Energy=         0.050408
 Sum of electronic and zero-point Energies=            -37.939911
 Sum of electronic and thermal Energies=               -37.936432
 Sum of electronic and thermal Enthalpies=             -37.935488
 Sum of electronic and thermal Free Energies=          -37.966095

                     E (Thermal)             CV                S
                      KCAL/MOL        CAL/MOL-KELVIN    CAL/MOL-KELVIN
 TOTAL                   50.246             11.736             64.419
 ELECTRONIC               0.000              0.000              0.000
 TRANSLATIONAL            0.889              2.981             38.570
 ROTATIONAL               0.889              2.981             24.147
 VIBRATIONAL             48.468              5.775              1.702
                       Q            LOG10(Q)             LN(Q)
 TOTAL BOT       0.651486D-23        -23.186095        -53.387956
 TOTAL V=0       0.110600D+13         12.043754         27.731768
 VIB (BOT)       0.699245D-35        -35.155370        -80.948232
 VIB (V=0)       0.118708D+01          0.074478          0.171493
 ELECTRONIC      0.100000D+01          0.000000          0.000000
 TRANSLATIONAL   0.220588D+08          7.343582         16.909224
 ROTATIONAL      0.422370D+05          4.625693         10.651052
 ***** Axes restored to original set *****
 -------------------------------------------------------------------
 Center     Atomic                   Forces (Hartrees/Bohr)
 Number     Number              X              Y              Z
 -------------------------------------------------------------------
    1          1           0.000011247    0.000000000   -0.000023708
    2          6          -0.000017614    0.000000000    0.000235675
    3          1          -0.000010394    0.000000000   -0.000020658
    4          6           0.000134064    0.000000000   -0.000077599
    5          1           0.000005178    0.000000000   -0.000010911
    6          6          -0.000065723    0.000000000   -0.000118598
    7          7          -0.000129152    0.000000000    0.000123098
    8          1          -0.000004331    0.000000000   -0.000005669
    9          7           0.000076725    0.000000000   -0.000101629
 -------------------------------------------------------------------
 Cartesian Forces:  Max     0.000235675 RMS     0.000073962

 GradGradGradGradGradGradGradGradGradGradGradGradGradGradGradGradGradGrad
 Berny optimization.
 Internal  Forces:  Max     0.000123824 RMS     0.000041778
 Search for a local minimum.
 Step number   1 out of a maximum of  48
 All quantities printed in internal units (Hartrees-Bohrs-Radians)
 Second derivative matrix not updated -- analytic derivatives used.
     Eigenvalues ---    0.01144   0.01535   0.02188   0.03398   0.06631
     Eigenvalues ---    0.07309   0.10963   0.12068   0.12669   0.13900
     Eigenvalues ---    0.26437   0.29011   0.37348   0.40965   0.41125
     Eigenvalues ---    0.41289   0.44593   0.46707   0.54947   0.56691
     Eigenvalues ---    0.633471000.000001000.000001000.000001000.00000
     Eigenvalues --- 1000.000001000.000001000.000001000.000001000.00000
     Eigenvalues --- 1000.000001000.000001000.000001000.000001000.00000
     Eigenvalues --- 1000.000001000.000001000.00000
 Angle between quadratic step and forces=  25.81 degrees.
 Linear search not attempted -- first point.
 Iteration  1 RMS(Cart)=  0.00011735 RMS(Int)=  0.00000001
 Iteration  2 RMS(Cart)=  0.00000001 RMS(Int)=  0.00000000
 Variable       Old X    -DE/DX   Delta X   Delta X   Delta X     New X
                                 (Linear)    (Quad)   (Total)
    R1        2.01911   0.00000   0.00000   0.00001   0.00001   2.01912
    R2        2.60836   0.00006   0.00000   0.00022   0.00022   2.60858
    R3        2.57976  -0.00011   0.00000  -0.00037  -0.00037   2.57939
    R4        2.01705   0.00002   0.00000   0.00003   0.00003   2.01707
    R5        2.70365  -0.00006   0.00000  -0.00019  -0.00019   2.70346
    R6        2.01868   0.00000   0.00000   0.00002   0.00002   2.01870
    R7        2.50960   0.00012   0.00000   0.00027   0.00027   2.50987
    R8        2.57920  -0.00009   0.00000  -0.00015  -0.00015   2.57905
    R9        1.87154   0.00000   0.00000   0.00000   0.00000   1.87154
    A1        2.28985  -0.00006   0.00000  -0.00034  -0.00034   2.28950
    A2        2.13117  -0.00001   0.00000   0.00018   0.00018   2.13136
    A3        1.86217   0.00007   0.00000   0.00016   0.00016   1.86233
    A4        2.22660   0.00003   0.00000  -0.00006  -0.00006   2.22655
    A5        1.82789  -0.00008   0.00000  -0.00024  -0.00024   1.82765
    A6        2.22870   0.00006   0.00000   0.00030   0.00030   2.22899
    A7        2.24613  -0.00003   0.00000  -0.00010  -0.00010   2.24603
    A8        1.94244   0.00004   0.00000   0.00014   0.00014   1.94259
    A9        2.09462  -0.00001   0.00000  -0.00004  -0.00004   2.09457
   A10        1.83389  -0.00004   0.00000  -0.00016  -0.00016   1.83373
   A11        1.95839   0.00002   0.00000   0.00010   0.00010   1.95849
   A12        2.24152  -0.00002   0.00000  -0.00012  -0.00012   2.24140
   A13        2.08327  -0.00001   0.00000   0.00002   0.00002   2.08330
    D1        0.00000   0.00000   0.00000   0.00000   0.00000   0.00000
    D2        3.14159   0.00000   0.00000   0.00000   0.00000   3.14159
    D3        3.14159   0.00000   0.00000   0.00000   0.00000   3.14159
    D4        0.00000   0.00000   0.00000   0.00000   0.00000   0.00000
    D5        3.14159   0.00000   0.00000   0.00000   0.00000   3.14159
    D6        0.00000   0.00000   0.00000   0.00000   0.00000   0.00000
    D7        0.00000   0.00000   0.00000   0.00000   0.00000   0.00000
    D8        3.14159   0.00000   0.00000   0.00000   0.00000   3.14159
    D9        3.14159   0.00000   0.00000   0.00000   0.00000   3.14159
   D10        0.00000   0.00000   0.00000   0.00000   0.00000   0.00000
   D11        0.00000   0.00000   0.00000   0.00000   0.00000   0.00000
   D12        3.14159   0.00000   0.00000   0.00000   0.00000   3.14159
   D13        0.00000   0.00000   0.00000   0.00000   0.00000   0.00000
   D14        3.14159   0.00000   0.00000   0.00000   0.00000   3.14159
   D15        0.00000   0.00000   0.00000   0.00000   0.00000   0.00000
   D16        3.14159   0.00000   0.00000   0.00000   0.00000   3.14159
         Item               Value     Threshold  Converged?
 Maximum Force            0.000124     0.000450     YES
 RMS     Force            0.000042     0.000300     YES
 Maximum Displacement     0.000375     0.001800     YES
 RMS     Displacement     0.000117     0.001200     YES
 Predicted change in Energy=-9.860438D-08
 Optimization completed.
    -- Stationary point found.
                         ----------------------------
                         !   Optimized Parameters   !
                         ! (Angstroms and Degrees)  !
 ------------------------                            -------------------------
 ! Name  Definition              Value          Derivative Info.             !
 -----------------------------------------------------------------------------
 ! R1    R(1,2)                  1.0685         -DE/DX =    0.               !
 ! R2    R(2,4)                  1.3803         -DE/DX =    0.0001           !
 ! R3    R(2,9)                  1.3652         -DE/DX =   -0.0001           !
 ! R4    R(3,4)                  1.0674         -DE/DX =    0.               !
 ! R5    R(4,6)                  1.4307         -DE/DX =   -0.0001           !
 ! R6    R(5,6)                  1.0682         -DE/DX =    0.               !
 ! R7    R(6,7)                  1.328          -DE/DX =    0.0001           !
 ! R8    R(7,9)                  1.3649         -DE/DX =   -0.0001           !
 ! R9    R(8,9)                  0.9904         -DE/DX =    0.               !
 ! A1    A(1,2,4)              131.1985         -DE/DX =   -0.0001           !
 ! A2    A(1,2,9)              122.1072         -DE/DX =    0.               !
 ! A3    A(4,2,9)              106.6943         -DE/DX =    0.0001           !
 ! A4    A(2,4,3)              127.575          -DE/DX =    0.               !
 ! A5    A(2,4,6)              104.7301         -DE/DX =   -0.0001           !
 ! A6    A(3,4,6)              127.6949         -DE/DX =    0.0001           !
 ! A7    A(4,6,5)              128.6935         -DE/DX =    0.               !
 ! A8    A(4,6,7)              111.2938         -DE/DX =    0.               !
 ! A9    A(5,6,7)              120.0127         -DE/DX =    0.               !
 ! A10   A(6,7,9)              105.074          -DE/DX =    0.               !
 ! A11   A(2,9,7)              112.2078         -DE/DX =    0.               !
 ! A12   A(2,9,8)              128.4295         -DE/DX =    0.               !
 ! A13   A(7,9,8)              119.3627         -DE/DX =    0.               !
 ! D1    D(1,2,4,3)              0.             -DE/DX =    0.               !
 ! D2    D(1,2,4,6)            180.             -DE/DX =    0.               !
 ! D3    D(9,2,4,3)            180.             -DE/DX =    0.               !
 ! D4    D(9,2,4,6)              0.             -DE/DX =    0.               !
 ! D5    D(1,2,9,7)            180.             -DE/DX =    0.               !
 ! D6    D(1,2,9,8)              0.             -DE/DX =    0.               !
 ! D7    D(4,2,9,7)              0.             -DE/DX =    0.               !
 ! D8    D(4,2,9,8)            180.             -DE/DX =    0.               !
 ! D9    D(2,4,6,5)            180.             -DE/DX =    0.               !
 ! D10   D(2,4,6,7)              0.             -DE/DX =    0.               !
 ! D11   D(3,4,6,5)              0.             -DE/DX =    0.               !
 ! D12   D(3,4,6,7)            180.             -DE/DX =    0.               !
 ! D13   D(4,6,7,9)              0.             -DE/DX =    0.               !
 ! D14   D(5,6,7,9)            180.             -DE/DX =    0.               !
 ! D15   D(6,7,9,2)              0.             -DE/DX =    0.               !
 ! D16   D(6,7,9,8)            180.             -DE/DX =    0.               !
 -----------------------------------------------------------------------------
 GradGradGradGradGradGradGradGradGradGradGradGradGradGradGradGradGradGrad

 1\1\GINC-FERRUM\Freq\RHF\CEP-121G\C3H4N2\RDJ3\31-Aug-2000\0\\#N GEOM=A
 LLCHECK GUESS=TCHECK RHF/CEP-121G FREQ\\1H pyrazole C3H4N2 casno=28813
 1\\0,1\H,-1.8687531291,0.,-1.1803206742\C,-0.9297474094,0.,-0.67052524
 46\H,0.6816839456,0.,-2.1687205499\C,0.3647793849,0.,-1.1494750357\H,2
 .2521486074,0.,0.0902015409\C,1.1860870182,0.,0.0220112692\N,0.4497691
 404,0.,1.1272190343\H,-1.5793536404,0.,1.3551072852\N,-0.843809492,0.,
 0.6919186541\\Version=IBM-RS6000-G98RevA.6\State=1-A'\HF=-38.0165038\R
 MSD=1.961e-09\RMSF=7.396e-05\Dipole=-0.8425926,0.,-0.6129395\DipoleDer
 iv=-0.0083919,0.,-0.0616477,0.,0.2253269,0.,-0.050951,0.,0.0858864,0.2
 612058,0.,-0.1644632,0.,-0.0710055,0.,-0.4259687,0.,0.332648,0.1018465
 ,0.,0.0425436,0.,0.2298663,0.,0.0415667,0.,-0.0561868,-0.4085594,0.,-0
 .0254744,0.,-0.3010593,0.,-0.0598522,0.,0.0020186,-0.0598852,0.,-0.012
 6363,0.,0.1794806,0.,-0.0296561,0.,0.0939559,0.2940607,0.,0.1165217,0.
 ,-0.079495,0.,0.2914218,0.,0.2437921,0.1184882,0.,-0.2450467,0.,-0.239
 8771,0.,-0.0930746,0.,-0.6173466,0.2233823,0.,-0.0362771,0.,0.3967616,
 0.,-0.0335509,0.,0.230641,-0.522147,0.,0.3864801,0.,-0.3399983,0.,0.36
 0065,0.,-0.3154085\Polar=49.368142,0.,23.2245501,-1.118235,0.,44.88464
 72\PolarDeriv=-7.4697094,0.,-0.1476565,-2.9626601,0.,-1.9570367,0.,-0.
 1948135,0.,0.,-0.2879826,0.,-2.8874239,0.,-0.280424,-2.5236648,0.,-2.4
 211872,-4.2331087,0.,-2.2923274,-3.8638833,0.,-4.9441327,0.,-5.0114255
 ,0.,0.,-0.7927987,0.,-1.1263605,0.,-0.4746419,3.0513652,0.,0.8999372,1
 .5174365,0.,-0.0311009,-1.7367423,0.,1.7603152,0.,-0.297797,0.,0.,-0.8
 025202,0.,-1.4204405,0.,-0.1286162,2.1402153,0.,-8.5376326,3.2674943,0
 .,1.0091782,6.7223922,0.,5.365525,0.,3.2633032,0.,0.,-2.6672262,0.,-2.
 6162591,0.,-1.169509,3.3839061,0.,0.4826625,10.0279191,0.,0.3434145,0.
 5162531,0.,0.8289665,0.,1.0301266,0.,0.,0.4836511,0.,0.4453971,0.,0.00
 44209,1.409368,0.,0.085106,0.9335876,0.,1.6243895,-2.1995214,0.,2.0688
 219,0.,2.7240123,0.,0.,-1.333255,0.,0.7663841,0.,-0.1217289,-7.469942,
 0.,-8.9394689,2.69703,0.,-1.3998522,-1.2640743,0.,-2.1239788,0.,0.4466
 925,0.,0.,3.9164581,0.,2.4222336,0.,1.1338578,5.7309712,0.,16.0599793,
 -4.9383433,0.,0.135268,3.2171045,0.,-2.7053167,0.,-0.5683125,0.,0.,0.4
 954988,0.,2.6883615,0.,0.1849767,-3.0274576,0.,4.2934991,-1.8023061,0.
 ,0.7586868,1.5711317,0.,1.7068363,0.,-1.3917862,0.,0.,0.9881747,0.,1.7
 281078,0.,0.8516645,-2.6947613,0.,-1.9228954\HyperPolar=-20.953788,0.,
 0.6811944,0.,9.1140328,0.,-19.0106358,8.3535918,0.,-50.6484676\PG=CS [
 SG(C3H4N2)]\NImag=0\\0.33023046,0.,0.02839574,0.14778382,0.,0.14136530
 ,-0.33117058,0.,-0.12997159,0.97436681,0.,-0.04047747,0.,0.,0.16187361
 ,-0.14076555,0.,-0.13923796,0.12045087,0.,0.70599683,0.00032361,0.,-0.
 00100457,0.00323605,0.,0.03057910,0.08880584,0.,-0.00380788,0.,0.,0.00
 077520,0.,0.,0.02758217,0.00080433,0.,-0.00006789,-0.00815201,0.,0.001
 77152,-0.10152860,0.,0.38060309,-0.00397829,0.,0.01331496,-0.38957049,
 0.,0.07215929,-0.09696050,0.,0.09663430,0.68761814,0.,0.00491077,0.,0.
 ,-0.08405734,0.,0.,-0.03610441,0.,0.,0.15024290,-0.01868775,0.,0.01351
 123,0.10381001,0.,-0.16882558,0.09332397,0.,-0.37303795,-0.14668247,0.
 ,0.92367797,-0.00031485,0.,0.00022052,-0.00040258,0.,-0.00084407,-0.00
 009318,0.,-0.00076988,-0.00149459,0.,0.00779232,0.41007557,0.,0.000466
 91,0.,0.,0.00544153,0.,0.,-0.00184533,0.,0.,0.00232216,0.,0.,0.0310709
 7,-0.00115692,0.,0.00117342,-0.00373510,0.,-0.00699276,0.00102805,0.,0
 .00013078,-0.02412184,0.,0.00843335,0.02061256,0.,0.06482955,-0.004695
 08,0.,0.00523758,-0.06344378,0.,-0.00722287,0.01436384,0.,0.01547794,-
 0.19948396,0.,-0.09524644,-0.39654056,0.,-0.03487147,1.00290584,0.,0.0
 0735359,0.,0.,0.01339250,0.,0.,-0.00153017,0.,0.,-0.08244461,0.,0.,-0.
 04163092,0.,0.,0.17342729,0.00136482,0.,-0.00170875,-0.07377618,0.,0.0
 5260015,-0.01988307,0.,-0.00678975,-0.06163671,0.,-0.24324660,-0.02219
 132,0.,-0.07067831,-0.03944538,0.,0.66950705,0.00140334,0.,0.00250751,
 -0.06312389,0.,-0.04317127,-0.00283393,0.,-0.00144221,0.03509949,0.,0.
 03983652,-0.01185722,0.,0.03362905,-0.21711226,0.,0.16956681,0.5562249
 8,0.,0.00599908,0.,0.,0.01891310,0.,0.,0.00632226,0.,0.,0.02657499,0.,
 0.,-0.00723133,0.,0.,-0.08389848,0.,0.,0.11647773,0.00315288,0.,-0.005
 22976,-0.02145469,0.,-0.08541109,-0.00689204,0.,-0.00365761,-0.0402488
 4,0.,-0.08898299,-0.00748047,0.,0.00716223,0.12868533,0.,-0.35168120,-
 0.07424255,0.,0.64123653,-0.00008782,0.,0.00066841,0.01335298,0.,-0.01
 014174,0.00086890,0.,-0.00001440,0.00247460,0.,-0.00392071,-0.00053793
 ,0.,0.00158945,-0.00802740,0.,-0.00670729,-0.01574484,0.,0.03153137,0.
 33985726,0.,-0.00184959,0.,0.,-0.00590551,0.,0.,0.00221736,0.,0.,0.004
 04919,0.,0.,0.00187848,0.,0.,0.00533474,0.,0.,-0.01101180,0.,0.,0.0177
 7915,-0.00091113,0.,0.00008710,0.02985945,0.,-0.00487918,0.00131356,0.
 ,0.00001096,-0.00325887,0.,-0.00720041,-0.00047024,0.,0.00124446,-0.00
 834653,0.,0.00089826,-0.01606134,0.,0.01801526,-0.23335561,0.,0.289895
 73,0.00828920,0.,-0.03875664,-0.14324452,0.,-0.02104377,-0.00771063,0.
 ,-0.00100948,-0.03370440,0.,0.01977455,0.00116533,0.,0.00702622,-0.127
 96664,0.,0.05270833,-0.28205567,0.,-0.01305101,-0.33215574,0.,0.231230
 71,0.91738307,0.,-0.00099117,0.,0.,-0.06995562,0.,0.,0.00639080,0.,0.,
 0.01450636,0.,0.,0.00952753,0.,0.,0.00999607,0.,0.,-0.07214554,0.,0.,-
 0.01249201,0.,0.,0.11516359,0.00841550,0.,-0.00989268,-0.01703077,0.,-
 0.35502193,0.00306361,0.,0.00103685,0.09384018,0.,-0.06432902,0.003130
 58,0.,-0.00530270,0.03573184,0.,-0.04890086,-0.11062252,0.,-0.13145136
 ,0.22035050,0.,-0.29807218,-0.23687891,0.,0.91193389\\-0.00001125,0.,0
 .00002371,0.00001761,0.,-0.00023567,0.00001039,0.,0.00002066,-0.000134
 06,0.,0.00007760,-0.00000518,0.,0.00001091,0.00006572,0.,0.00011860,0.
 00012915,0.,-0.00012310,0.00000433,0.,0.00000567,-0.00007672,0.,0.0001
 0163\\\@

 COMMON SENSE IS NOT SO COMMON.   -- VOLTAIRE
 Job cpu time:  0 days  0 hours  1 minutes 49.8 seconds.
 File lengths (MBytes):  RWF=   17 Int=    0 D2E=    0 Chk=    8 Scr=    1
 Normal termination of Gaussian 98.
