 Gaussian 98, Revision A.4,
 Gaussian 98:  IBM-RS6000-G98RevA.4 11-Sep-1998

 ------------------
 #HF/3-21G opt freq
 ------------------

 -------------------------------
 1H pyrazole C3H4N2 casno=288131
 -------------------------------
 Symbolic Z-matrix:
 Charge =  0 Multiplicity = 1

 SCF Done:  E(RHF) =  -223.462889754     A.U. after   14 cycles
 SCF Done:  E(RHF) =  -223.515813759     A.U. after   14 cycles
 SCF Done:  E(RHF) =  -223.524631539     A.U. after   14 cycles
 SCF Done:  E(RHF) =  -223.525213116     A.U. after   13 cycles
 SCF Done:  E(RHF) =  -223.525479039     A.U. after   11 cycles
 SCF Done:  E(RHF) =  -223.525509149     A.U. after   12 cycles
 SCF Done:  E(RHF) =  -223.525513091     A.U. after   10 cycles
 Optimization completed.
    -- Stationary point found.
 Normal termination of Gaussian 98.

 --------------------------------------------
 #N Geom=AllCheck Guess=TCheck RHF/3-21G Freq
 --------------------------------------------

 1H pyrazole C3H4N2 casno=288131
 -------------------------------
 Redundant internal coordinates taken from checkpointfile:
 /wrk/rdj3/Gau-11568.chk
 Charge =  0 Multiplicity = 1

                         Standard orientation:
 ---------------------------------------------------------------------
 Center     Atomic     Atomic              Coordinates (Angstroms)
 Number     Number      Type              X           Y           Z
 ---------------------------------------------------------------------
    1          1             0        2.089952    0.717051    0.000000
    2          6             0        1.105128    0.312860    0.000000
    3          1             0        1.271601   -1.860965    0.000000
    4          6             0        0.675886   -0.980154    0.000000
    5          1             0       -1.441780   -1.698362    0.000000
    6          6             0       -0.741552   -0.896852    0.000000
    7          7             0       -1.156159    0.348533    0.000000
    8          1             0       -0.063431    2.090083    0.000000
    9          7             0        0.000000    1.099620    0.000000
 ---------------------------------------------------------------------

 SCF Done:  E(RHF) =  -223.525513091     A.U. after    1 cycles

  The electronic state is 1-A'.
 Alpha  occ. eigenvalues --  -15.56172 -15.51553 -11.22483 -11.19652 -11.16429
 Alpha  occ. eigenvalues --   -1.37835  -1.11021  -1.05095  -0.82562  -0.79739
 Alpha  occ. eigenvalues --   -0.74830  -0.61591  -0.60513  -0.58842  -0.56986
 Alpha  occ. eigenvalues --   -0.44251  -0.37155  -0.34548
 Alpha virt. eigenvalues --    0.17978   0.25356   0.26374   0.31334   0.33938
 Alpha virt. eigenvalues --    0.35327   0.41691   0.43657   0.52456   0.67597
 Alpha virt. eigenvalues --    0.68044   0.94282   0.98207   0.98488   1.02092

  Exact polarizability:  39.280   2.279  43.871   0.000   0.000  11.523
 Approx polarizability:  39.602   0.732  43.839   0.000   0.000  10.690

                     1                      2                      3
                    A"                     A"                     A"
 Frequencies --   675.7742               720.3886               741.9320
 Red. masses --     2.8474                 1.5196                 2.1955
 Frc consts  --     0.7661                 0.4646                 0.7121
 IR Inten    --    90.4076                37.6588                63.7216
 Raman Activ --     1.9019                 0.0163                 0.1269

                     4                      5                      6
                    A"                     A'                     A'
 Frequencies --   908.8812              1001.1885              1040.4816
 Red. masses --     1.2027                 5.6381                 5.2689
 Frc consts  --     0.5854                 3.3298                 3.3608
 IR Inten    --    90.7711                35.0512                 6.4438
 Raman Activ --     0.9159                 4.3916                 4.2645

                     7                      8                      9
                    A"                     A'                     A"
 Frequencies --  1042.5982              1068.1905              1111.8002
 Red. masses --     1.2972                 3.0085                 1.4992
 Frc consts  --     0.8308                 2.0225                 1.0919
 IR Inten    --     5.0740                19.0714                 0.1076
 Raman Activ --     1.6802                 2.3463                 1.8293

                    10                     11                     12
                    A'                     A'                     A'
 Frequencies --  1125.4199              1181.9568              1245.1868
 Red. masses --     1.7631                 2.3824                 1.7429
 Frc consts  --     1.3157                 1.9609                 1.5921
 IR Inten    --     0.6305                29.1282                 4.6163
 Raman Activ --     1.9996                 5.1252                15.9600

                    13                     14                     15
                    A'                     A'                     A'
 Frequencies --  1378.1170              1495.3618              1514.5086
 Red. masses --     1.8516                 3.1589                 1.6344
 Frc consts  --     2.0719                 4.1618                 2.2088
 IR Inten    --     2.7999                11.9363                 6.1705
 Raman Activ --    10.3927                39.0273                 4.5879

                    16                     17                     18
                    A'                     A'                     A'
 Frequencies --  1560.3141              1695.4105              3451.1232
 Red. masses --     2.1237                 2.7861                 1.0935
 Frc consts  --     3.0462                 4.7183                 7.6736
 IR Inten    --    19.1430                19.3299                 4.1503
 Raman Activ --     2.8510                 1.0840                99.2597

                    19                     20                     21
                    A'                     A'                     A'
 Frequencies --  3457.5596              3483.6619              3877.3988
 Red. masses --     1.0965                 1.1068                 1.0833
 Frc consts  --     7.7233                 7.9137                 9.5956
 IR Inten    --     3.2262                 0.1114               133.5514
 Raman Activ --    13.1812               103.2016                84.6988

 - Thermochemistry -
 -------------------
 Temperature   298.150 Kelvin.  Pressure   1.00000 Atm.
 Atom  1 has atomic number  1 and mass   1.00783

 Molecular mass:    68.03745 amu.
 Principal axes and moments of inertia in atomic units:
                           1         2         3
     EIGENVALUES --   186.75865 191.17775 377.93639
           X            0.99990  -0.01405   0.00000
           Y            0.01405   0.99990   0.00000
           Z            0.00000   0.00000   1.00000
 THIS MOLECULE IS AN ASYMMETRIC TOP.
 ROTATIONAL SYMMETRY NUMBER  1.
 ROTATIONAL TEMPERATURES (KELVIN)      0.46377     0.45305     0.22917
 ROTATIONAL CONSTANTS (GHZ)            9.66349     9.44012     4.77525
 Zero-point vibrational energy     202032.9 (Joules/Mol)
                                   48.28701 (Kcal/Mol)
 VIBRATIONAL TEMPERATURES:    972.28  1036.47  1067.47  1307.67  1440.48
          (KELVIN)           1497.01  1500.06  1536.88  1599.62  1619.22
                             1700.56  1791.54  1982.79  2151.48  2179.03
                             2244.93  2439.30  4965.37  4974.63  5012.18
                             5578.68

 Zero-point correction=                           0.076950 (Hartree/Particle)
 Thermal correction to Energy=                    0.080389
 Thermal correction to Enthalpy=                  0.081333
 Thermal correction to Gibbs Free Energy=         0.050795
 Sum of electronic and zero-point Energies=           -223.448563
 Sum of electronic and thermal Energies=              -223.445124
 Sum of electronic and thermal Enthalpies=            -223.444180
 Sum of electronic and thermal Free Energies=         -223.474718

                     E (Thermal)             CV                S
                      KCAL/MOL        CAL/MOL-KELVIN    CAL/MOL-KELVIN
 TOTAL                   50.445             11.502             64.274
 ELECTRONIC               0.000              0.000              0.000
 TRANSLATIONAL            0.889              2.981             38.570
 ROTATIONAL               0.889              2.981             24.116
 VIBRATIONAL             48.668              5.541              1.588
                       Q            LOG10(Q)             LN(Q)
 TOTAL BOT       0.432631D-23        -23.363882        -53.797327
 TOTAL V=0       0.107285D+13         12.030538         27.701338
 VIB (BOT)       0.471647D-35        -35.326383        -81.342002
 VIB (V=0)       0.116960D+01          0.068038          0.156663
 ELECTRONIC      0.100000D+01          0.000000          0.000000
 TRANSLATIONAL   0.220588D+08          7.343582         16.909224
 ROTATIONAL      0.415832D+05          4.618918         10.635451
 ***** Axes restored to original set *****
 -------------------------------------------------------------------
 Center     Atomic                   Forces (Hartrees/Bohr)
 Number     Number              X              Y              Z
 -------------------------------------------------------------------
    1          1          -0.000034230    0.000000000   -0.000076362
    2          6          -0.000093609    0.000000000    0.000607452
    3          1          -0.000017015    0.000000000   -0.000117089
    4          6           0.000448005    0.000000000   -0.000144875
    5          1           0.000053947    0.000000000    0.000045310
    6          6          -0.000398487    0.000000000   -0.000477197
    7          7          -0.000238584    0.000000000    0.000583861
    8          1          -0.000022280    0.000000000    0.000112354
    9          7           0.000302254    0.000000000   -0.000533455
 -------------------------------------------------------------------
 Cartesian Forces:  Max     0.000607452 RMS     0.000258113

 GradGradGradGradGradGradGradGradGradGradGradGradGradGradGradGradGradGrad
 Berny optimization.
 Internal  Forces:  Max     0.000348644 RMS     0.000130967
 Search for a local minimum.
 Step number   1 out of a maximum of  48
 All quantities printed in internal units (Hartrees-Bohrs-Radians)
 Second derivative matrix not updated -- analytic derivatives used.
     Eigenvalues ---    0.01189   0.01758   0.02384   0.03672   0.07004
     Eigenvalues ---    0.07881   0.11427   0.12555   0.12652   0.13578
     Eigenvalues ---    0.23910   0.27429   0.34390   0.41174   0.41869
     Eigenvalues ---    0.42287   0.43947   0.46036   0.53412   0.56871
     Eigenvalues ---    0.640631000.000001000.000001000.000001000.00000
     Eigenvalues --- 1000.000001000.000001000.000001000.000001000.00000
     Eigenvalues --- 1000.000001000.000001000.000001000.000001000.00000
     Eigenvalues --- 1000.000001000.000001000.00000
 Angle between quadratic step and forces=  23.13 degrees.
 Linear search not attempted -- first point.
 Iteration  1 RMS(Cart)=  0.00032000 RMS(Int)=  0.00000010
 Iteration  2 RMS(Cart)=  0.00000012 RMS(Int)=  0.00000003
 Variable       Old X    -DE/DX   Delta X   Delta X   Delta X     New X
                                 (Linear)    (Quad)   (Total)
    R1        2.01169   0.00007   0.00000   0.00018   0.00018   2.01187
    R2        2.57456   0.00019   0.00000   0.00082   0.00082   2.57538
    R3        2.56356  -0.00027   0.00000  -0.00113  -0.00113   2.56243
    R4        2.00943   0.00011   0.00000   0.00021   0.00021   2.00964
    R5        2.68319  -0.00019   0.00000  -0.00077  -0.00077   2.68242
    R6        2.01124   0.00006   0.00000   0.00017   0.00017   2.01141
    R7        2.48043   0.00035   0.00000   0.00088   0.00088   2.48131
    R8        2.60538  -0.00020   0.00000  -0.00026  -0.00026   2.60512
    R9        1.87554   0.00009   0.00000   0.00020   0.00020   1.87574
    A1        2.28078  -0.00011   0.00000  -0.00066  -0.00066   2.28012
    A2        2.13346  -0.00001   0.00000   0.00041   0.00041   2.13387
    A3        1.86895   0.00011   0.00000   0.00025   0.00025   1.86920
    A4        2.22641   0.00007   0.00000  -0.00018  -0.00018   2.22623
    A5        1.83262  -0.00025   0.00000  -0.00066  -0.00066   1.83196
    A6        2.22416   0.00018   0.00000   0.00084   0.00084   2.22500
    A7        2.23015  -0.00006   0.00000   0.00016   0.00016   2.23031
    A8        1.95087   0.00022   0.00000   0.00065   0.00065   1.95152
    A9        2.10216  -0.00015   0.00000  -0.00081  -0.00081   2.10136
   A10        1.82555  -0.00026   0.00000  -0.00080  -0.00080   1.82474
   A11        1.94679   0.00018   0.00000   0.00056   0.00056   1.94735
   A12        2.25343  -0.00003   0.00000   0.00006   0.00006   2.25349
   A13        2.08296  -0.00015   0.00000  -0.00062  -0.00062   2.08234
    D1        0.00000   0.00000   0.00000   0.00000   0.00000   0.00000
    D2        3.14159   0.00000   0.00000   0.00000   0.00000   3.14159
    D3        3.14159   0.00000   0.00000   0.00000   0.00000   3.14159
    D4        0.00000   0.00000   0.00000   0.00000   0.00000   0.00000
    D5        3.14159   0.00000   0.00000   0.00000   0.00000   3.14159
    D6        0.00000   0.00000   0.00000   0.00000   0.00000   0.00000
    D7        0.00000   0.00000   0.00000   0.00000   0.00000   0.00000
    D8        3.14159   0.00000   0.00000   0.00000   0.00000   3.14159
    D9        3.14159   0.00000   0.00000   0.00000   0.00000   3.14159
   D10        0.00000   0.00000   0.00000   0.00000   0.00000   0.00000
   D11        0.00000   0.00000   0.00000   0.00000   0.00000   0.00000
   D12        3.14159   0.00000   0.00000   0.00000   0.00000   3.14159
   D13        0.00000   0.00000   0.00000   0.00000   0.00000   0.00000
   D14        3.14159   0.00000   0.00000   0.00000   0.00000   3.14159
   D15        0.00000   0.00000   0.00000   0.00000   0.00000   0.00000
   D16        3.14159   0.00000   0.00000   0.00000   0.00000   3.14159
         Item               Value     Threshold  Converged?
 Maximum Force            0.000349     0.000450     YES
 RMS     Force            0.000131     0.000300     YES
 Maximum Displacement     0.000839     0.001800     YES
 RMS     Displacement     0.000320     0.001200     YES
 Predicted change in Energy=-1.037402D-06
 Optimization completed.
    -- Stationary point found.
                         ----------------------------
                         !   Optimized Parameters   !
                         ! (Angstroms and Degrees)  !
 ------------------------                            -------------------------
 ! Name  Definition              Value          Derivative Info.             !
 -----------------------------------------------------------------------------
 ! R1    R(1,2)                  1.0645         -DE/DX =    0.0001           !
 ! R2    R(2,4)                  1.3624         -DE/DX =    0.0002           !
 ! R3    R(2,9)                  1.3566         -DE/DX =   -0.0003           !
 ! R4    R(3,4)                  1.0633         -DE/DX =    0.0001           !
 ! R5    R(4,6)                  1.4199         -DE/DX =   -0.0002           !
 ! R6    R(5,6)                  1.0643         -DE/DX =    0.0001           !
 ! R7    R(6,7)                  1.3126         -DE/DX =    0.0003           !
 ! R8    R(7,9)                  1.3787         -DE/DX =   -0.0002           !
 ! R9    R(8,9)                  0.9925         -DE/DX =    0.0001           !
 ! A1    A(1,2,4)              130.6788         -DE/DX =   -0.0001           !
 ! A2    A(1,2,9)              122.238          -DE/DX =    0.               !
 ! A3    A(4,2,9)              107.0831         -DE/DX =    0.0001           !
 ! A4    A(2,4,3)              127.5638         -DE/DX =    0.0001           !
 ! A5    A(2,4,6)              105.0013         -DE/DX =   -0.0002           !
 ! A6    A(3,4,6)              127.4349         -DE/DX =    0.0002           !
 ! A7    A(4,6,5)              127.7783         -DE/DX =   -0.0001           !
 ! A8    A(4,6,7)              111.7767         -DE/DX =    0.0002           !
 ! A9    A(5,6,7)              120.445          -DE/DX =   -0.0002           !
 ! A10   A(6,7,9)              104.596          -DE/DX =   -0.0003           !
 ! A11   A(2,9,7)              111.5429         -DE/DX =    0.0002           !
 ! A12   A(2,9,8)              129.1121         -DE/DX =    0.               !
 ! A13   A(7,9,8)              119.345          -DE/DX =   -0.0002           !
 ! D1    D(1,2,4,3)              0.             -DE/DX =    0.               !
 ! D2    D(1,2,4,6)            180.             -DE/DX =    0.               !
 ! D3    D(9,2,4,3)            180.             -DE/DX =    0.               !
 ! D4    D(9,2,4,6)              0.             -DE/DX =    0.               !
 ! D5    D(1,2,9,7)            180.             -DE/DX =    0.               !
 ! D6    D(1,2,9,8)              0.             -DE/DX =    0.               !
 ! D7    D(4,2,9,7)              0.             -DE/DX =    0.               !
 ! D8    D(4,2,9,8)            180.             -DE/DX =    0.               !
 ! D9    D(2,4,6,5)            180.             -DE/DX =    0.               !
 ! D10   D(2,4,6,7)              0.             -DE/DX =    0.               !
 ! D11   D(3,4,6,5)              0.             -DE/DX =    0.               !
 ! D12   D(3,4,6,7)            180.             -DE/DX =    0.               !
 ! D13   D(4,6,7,9)              0.             -DE/DX =    0.               !
 ! D14   D(5,6,7,9)            180.             -DE/DX =    0.               !
 ! D15   D(6,7,9,2)              0.             -DE/DX =    0.               !
 ! D16   D(6,7,9,8)            180.             -DE/DX =    0.               !
 -----------------------------------------------------------------------------
 GradGradGradGradGradGradGradGradGradGradGradGradGradGradGradGradGradGrad

 1\1\GINC-FERRUM\Freq\RHF\3-21G\C3H4N2\RDJ3\06-Oct-1999\0\\#N GEOM=ALLC
 HECK GUESS=TCHECK RHF/3-21G FREQ\\1H pyrazole C3H4N2 casno=288131\\0,1
 \H,-1.8626379887,0.,-1.1885447825\C,-0.933054264,0.,-0.6697747464\H,0.
 6640131265,0.,-2.1538908247\C,0.3459034946,0.,-1.1392429328\H,2.226707
 1007,0.,0.070264163\C,1.1635189041,0.,0.0216075545\N,0.4473788682,0.,1
 .1216194275\H,-1.5957257234,0.,1.3513438978\N,-0.8603167715,0.,0.68485
 03289\\Version=IBM-RS6000-G98RevA.4\State=1-A'\HF=-223.5255131\RMSD=9.
 633e-10\RMSF=2.581e-04\Dipole=-0.8097779,0.,-0.5547303\DipoleDeriv=0.0
 115309,0.,-0.0403212,0.,0.2035784,0.,-0.0457298,0.,0.083741,0.235296,0
 .,-0.1080522,0.,0.0189499,0.,-0.3879719,0.,0.2995453,0.0972539,0.,0.03
 0115,0.,0.2024098,0.,0.0325716,0.,-0.0221717,-0.4140233,0.,-0.0282063,
 0.,-0.3237728,0.,-0.0529971,0.,-0.0004745,-0.0445399,0.,-0.0295756,0.,
 0.162964,0.,-0.0135265,0.,0.0878605,0.2850147,0.,0.1825074,0.,-0.02900
 11,0.,0.2258802,0.,0.1322481,0.1061223,0.,-0.2567344,0.,-0.2171382,0.,
 -0.0260168,0.,-0.530285,0.2642301,0.,-0.0538723,0.,0.4099954,0.,-0.070
 7116,0.,0.2677242,-0.5408849,0.,0.3041396,0.,-0.4279855,0.,0.3385019,0
 .,-0.3181879\Polar=44.3108525,0.,11.5231435,-1.7258021,0.,38.8401255\P
 olarDeriv=-6.9403576,0.,-0.3519769,-2.845439,0.,-1.4926851,0.,-0.85199
 96,0.,0.,-0.691418,0.,-2.5798714,0.,-0.3366643,-2.6589842,0.,-2.373177
 4,-2.7425983,0.,0.2761552,-2.4361619,0.,-4.0817377,0.,-5.1136428,0.,0.
 ,-0.7571029,0.,-1.3261045,0.,0.3643429,2.6337412,0.,0.5742607,1.407133
 7,0.,0.0480098,-1.8168533,0.,1.4462128,0.,-0.0187582,0.,0.,-1.2950691,
 0.,-0.9098405,0.,-0.3996213,2.1039145,0.,-7.9099005,2.3486038,0.,-0.32
 99014,5.1876118,0.,4.0195753,0.,3.4737679,0.,0.,-3.1942515,0.,-2.28466
 29,0.,0.6242157,2.2187674,0.,0.4197249,9.6763899,0.,0.4687775,0.622062
 8,0.,0.468339,0.,1.7107355,0.,0.,0.394295,0.,0.2082736,0.,-0.0162689,1
 .5413639,0.,0.0907878,0.0309728,0.,-0.5700893,-1.9931255,0.,0.9256175,
 0.,2.5831459,0.,0.,-0.9086741,0.,0.8849168,0.,0.3594646,-5.7273519,0.,
 -6.404029,2.9725512,0.,0.0695023,-0.9495743,0.,-0.2884629,0.,0.5729361
 ,0.,0.,4.0755476,0.,2.5187733,0.,-0.1972827,4.7440913,0.,13.2217525,-4
 .8087001,0.,0.0619168,3.5015808,0.,-2.7603138,0.,-0.9584789,0.,0.,0.73
 70518,0.,2.5513255,0.,-0.052209,-3.1974565,0.,4.3531593,-1.9439954,0.,
 0.3276061,0.7298987,0.,1.7634548,0.,-1.397706,0.,0.,1.6396212,0.,0.937
 1901,0.,-0.345977,-1.6580857,0.,-1.9725783\HyperPolar=-18.5570689,0.,-
 1.9038522,0.,11.5082511,0.,-6.5832581,-2.2176886,0.,-41.0687423\PG=CS
 [SG(C3H4N2)]\NImag=0\\0.33473438,0.,0.03113772,0.15250507,0.,0.1475503
 0,-0.33091181,0.,-0.13246096,0.98613059,0.,-0.04639293,0.,0.,0.1849085
 1,-0.14310334,0.,-0.14364529,0.12645964,0.,0.68191215,0.00035544,0.,-0
 .00113684,0.00276195,0.,0.03325086,0.09435917,0.,-0.00454728,0.,0.,0.0
 0291798,0.,0.,0.03113421,0.00079521,0.,-0.00003669,-0.00505186,0.,-0.0
 0084281,-0.10430368,0.,0.39030044,-0.00854774,0.,0.01183033,-0.3842958
 9,0.,0.06932951,-0.10334682,0.,0.09629176,0.68945399,0.,0.00749318,0.,
 0.,-0.10024713,0.,0.,-0.04309505,0.,0.,0.17661004,-0.01963999,0.,0.015
 35489,0.10058917,0.,-0.17064619,0.09297675,0.,-0.37613507,-0.16318065,
 0.,0.91904825,-0.00033537,0.,0.00027210,-0.00050375,0.,-0.00093077,-0.
 00021177,0.,-0.00092321,-0.00502697,0.,0.00563473,0.41849775,0.,0.0004
 3041,0.,0.,0.00493223,0.,0.,-0.00227517,0.,0.,0.00431241,0.,0.,0.03381
 015,-0.00117596,0.,0.00112516,-0.00379745,0.,-0.00806487,0.00109790,0.
 ,0.00025866,-0.02628279,0.,0.00925862,0.01580386,0.,0.06601784,-0.0048
 8113,0.,0.00545548,-0.07965097,0.,-0.00966429,0.01603401,0.,0.01599647
 ,-0.18696069,0.,-0.07457943,-0.39924886,0.,-0.02935919,1.00657771,0.,0
 .00721387,0.,0.,0.01970423,0.,0.,0.00040374,0.,0.,-0.09754757,0.,0.,-0
 .04723040,0.,0.,0.19483095,0.00162757,0.,-0.00226069,-0.08204235,0.,0.
 05422842,-0.01991316,0.,-0.01102882,-0.04186829,0.,-0.21942265,-0.0180
 9204,0.,-0.07062236,-0.05082132,0.,0.64452322,0.00151833,0.,0.00230024
 ,-0.06618562,0.,-0.04731560,-0.00287664,0.,-0.00131946,0.03255425,0.,0
 .04144009,-0.01392763,0.,0.03428906,-0.20397113,0.,0.16186817,0.476356
 45,0.,0.00631085,0.,0.,0.01879238,0.,0.,0.00612358,0.,0.,0.03045361,0.
 ,0.,-0.00648515,0.,0.,-0.09077640,0.,0.,0.12065357,0.00327010,0.,-0.00
 528597,-0.02116185,0.,-0.08956933,-0.00695562,0.,-0.00348837,-0.041263
 14,0.,-0.09665618,-0.00412011,0.,0.00523550,0.11795232,0.,-0.34501632,
 -0.08849871,0.,0.63388878,-0.00027228,0.,0.00071323,0.01226746,0.,-0.0
 0599531,0.00075792,0.,-0.00003257,0.00287158,0.,-0.00390771,-0.0003388
 9,0.,0.00145030,-0.00690716,0.,-0.00737828,-0.01731948,0.,0.03029601,0
 .32663750,0.,-0.00212901,0.,0.,-0.00515643,0.,0.,0.00219557,0.,0.,0.00
 418010,0.,0.,0.00173722,0.,0.,0.00526701,0.,0.,-0.01048224,0.,0.,0.017
 95047,-0.00085311,0.,-0.00011713,0.02963794,0.,-0.00451326,0.00128146,
 0.,0.00012338,-0.00307881,0.,-0.00701685,-0.00057693,0.,0.00121218,-0.
 00810863,0.,0.00034253,-0.01282944,0.,0.01798643,-0.22758512,0.,0.2831
 6335,0.00834018,0.,-0.03947865,-0.13961197,0.,-0.02203071,-0.00783325,
 0.,-0.00145267,-0.03670170,0.,0.02066704,0.00109549,0.,0.00797427,-0.1
 4099178,0.,0.05661970,-0.20614854,0.,0.01048099,-0.31769665,0.,0.22211
 265,0.83954822,0.,0.00048319,0.,0.,-0.07945885,0.,0.,0.00714243,0.,0.,
 0.01784040,0.,0.,0.01076830,0.,0.,0.00813457,0.,0.,-0.07459021,0.,0.,-
 0.01356268,0.,0.,0.12324285,0.00657445,0.,-0.01268458,-0.01217228,0.,-
 0.31885880,0.00370232,0.,0.00084929,0.09822208,0.,-0.07378481,0.002932
 37,0.,-0.00442072,0.03312860,0.,-0.05074332,-0.08993437,0.,-0.11709453
 ,0.21243944,0.,-0.29118063,-0.25489262,0.,0.86791810\\0.00003423,0.,0.
 00007636,0.00009361,0.,-0.00060745,0.00001701,0.,0.00011709,-0.0004480
 0,0.,0.00014487,-0.00005395,0.,-0.00004531,0.00039849,0.,0.00047720,0.
 00023858,0.,-0.00058386,0.00002228,0.,-0.00011235,-0.00030225,0.,0.000
 53346\\\@

 TRUST EVERYONE, BUT CUT THE CARDS.
 Job cpu time:  0 days  0 hours  0 minutes 54.3 seconds.
 File lengths (MBytes):  RWF=   10 Int=    0 D2E=    0 Chk=    3 Scr=    1
 Normal termination of Gaussian 98.
