 Gaussian 98, Revision A.4,
 Gaussian 98:  x86-Linux-G98RevA.4 11-Sep-1998

 --------------------
 #HF/6-31G** opt freq
 --------------------

 -------------------------------
 1H pyrazole C3H4N2 casno=288131
 -------------------------------
 Symbolic Z-matrix:
 Charge =  0 Multiplicity = 1

 SCF Done:  E(RHF) =  -224.749542099     A.U. after   14 cycles
 SCF Done:  E(RHF) =  -224.796941885     A.U. after   13 cycles
 SCF Done:  E(RHF) =  -224.802961137     A.U. after   13 cycles
 SCF Done:  E(RHF) =  -224.803189476     A.U. after   11 cycles
 SCF Done:  E(RHF) =  -224.803276272     A.U. after   10 cycles
 SCF Done:  E(RHF) =  -224.803282714     A.U. after    9 cycles
 Optimization completed.
    -- Stationary point found.
 Normal termination of Gaussian 98.

 -------------------------------------------------
 #N Geom=AllCheck Guess=TCheck RHF/6-31G(d,p) Freq
 -------------------------------------------------

 1H pyrazole C3H4N2 casno=288131
 -------------------------------
 Redundant internal coordinates taken from checkpointfile:
 /wrk/rdj3/Gau-28072.chk
 Charge =  0 Multiplicity = 1

                         Standard orientation:
 ---------------------------------------------------------------------
 Center     Atomic     Atomic              Coordinates (Angstroms)
 Number     Number      Type              X           Y           Z
 ---------------------------------------------------------------------
    1          1             0        2.081044    0.720680    0.000000
    2          6             0        1.096011    0.302132    0.000000
    3          1             0        1.255510   -1.879569    0.000000
    4          6             0        0.662626   -0.989609    0.000000
    5          1             0       -1.475025   -1.659280    0.000000
    6          6             0       -0.745784   -0.874368    0.000000
    7          7             0       -1.127598    0.370556    0.000000
    8          1             0       -0.045459    2.065982    0.000000
    9          7             0        0.000000    1.075624    0.000000
 ---------------------------------------------------------------------

 SCF Done:  E(RHF) =  -224.803282714     A.U. after    1 cycles

  The electronic state is 1-A'.
 Alpha  occ. eigenvalues --  -15.63721 -15.58018 -11.27016 -11.24324 -11.21427
 Alpha  occ. eigenvalues --   -1.38448  -1.10171  -1.05066  -0.82223  -0.80244
 Alpha  occ. eigenvalues --   -0.74220  -0.61088  -0.60870  -0.58977  -0.55852
 Alpha  occ. eigenvalues --   -0.44978  -0.36074  -0.34245
 Alpha virt. eigenvalues --    0.18462   0.22875   0.24896   0.28487   0.30625
 Alpha virt. eigenvalues --    0.31779   0.41113   0.41836   0.45923   0.58024
 Alpha virt. eigenvalues --    0.66634   0.73513   0.77230   0.78436   0.82548

  Exact polarizability:  42.886   1.794  46.327   0.000   0.000  17.120
 Approx polarizability:  42.223   0.760  45.585   0.000   0.000  19.146

                     1                      2                      3
                    A"                     A"                     A"
 Frequencies --   565.9205               690.2609               747.7189
 Red. masses --     1.6509                 2.3153                 2.9278
 Frc consts  --     0.3115                 0.6500                 0.9644
 IR Inten    --    89.5339                 0.0041                26.3573
 Raman Activ --     1.3072                 0.1887                 0.2175

                     4                      5                      6
                    A"                     A"                     A'
 Frequencies --   856.0253               986.0273               998.1184
 Red. masses --     1.1874                 1.2716                 5.7230
 Frc consts  --     0.5127                 0.7284                 3.3592
 IR Inten    --    89.6758                 2.6532                13.9896
 Raman Activ --     0.7854                 0.4951                 4.1198

                     7                      8                      9
                    A'                     A"                     A'
 Frequencies --  1017.7944              1026.2102              1131.7402
 Red. masses --     4.2855                 1.3866                 1.5385
 Frc consts  --     2.6156                 0.8604                 1.1610
 IR Inten    --     6.8902                 2.6497                 0.2968
 Raman Activ --     1.4773                 1.6630                 1.0005

                    10                     11                     12
                    A'                     A'                     A'
 Frequencies --  1142.7576              1230.3194              1282.9789
 Red. masses --     1.6965                 1.9028                 2.6120
 Frc consts  --     1.3053                 1.6970                 2.5332
 IR Inten    --    53.4278                27.0405                 3.1216
 Raman Activ --     1.8749                 6.9026                19.7952

                    13                     14                     15
                    A'                     A'                     A'
 Frequencies --  1406.0317              1546.0047              1551.3974
 Red. masses --     1.6034                 2.4160                 3.8802
 Frc consts  --     1.8676                 3.4023                 5.5024
 IR Inten    --     3.3570                 0.8303                33.8971
 Raman Activ --     8.5475                 3.7635                40.7901

                    16                     17                     18
                    A'                     A'                     A'
 Frequencies --  1638.9889              1748.0652              3413.0440
 Red. masses --     2.5471                 3.1918                 1.0945
 Frc consts  --     4.0313                 5.7464                 7.5117
 IR Inten    --    12.8579                11.1889                 8.7413
 Raman Activ --     2.3492                 0.9657                95.4673

                    19                     20                     21
                    A'                     A'                     A'
 Frequencies --  3427.1681              3447.8462              3939.7971
 Red. masses --     1.0954                 1.1088                 1.0827
 Frc consts  --     7.5805                 7.7658                 9.9019
 IR Inten    --     5.4012                 1.3495               110.4496
 Raman Activ --    30.4474               117.2080                79.8710

 - Thermochemistry -
 -------------------
 Temperature   298.150 Kelvin.  Pressure   1.00000 Atm.
 Atom  1 has atomic number  1 and mass   1.00783

 Molecular mass:    68.03745 amu.
 Principal axes and moments of inertia in atomic units:
                           1         2         3
     EIGENVALUES --   182.68050 187.13999 369.82049
           X            0.94156   0.33683   0.00000
           Y           -0.33683   0.94156   0.00000
           Z            0.00000   0.00000   1.00000
 THIS MOLECULE IS AN ASYMMETRIC TOP.
 ROTATIONAL SYMMETRY NUMBER  1.
 ROTATIONAL TEMPERATURES (KELVIN)      0.47413     0.46283     0.23420
 ROTATIONAL CONSTANTS (GHZ)            9.87922     9.64380     4.88005
 Zero-point vibrational energy     202134.3 (Joules/Mol)
                                   48.31126 (Kcal/Mol)
 WARNING-- EXPLICIT CONSIDERATION OF   1 DEGREES OF FREEDOM AS
           VIBRATIONS MAY CAUSE SIGNIFICANT ERROR
 VIBRATIONAL TEMPERATURES:    814.23   993.13  1075.79  1231.62  1418.67
          (KELVIN)           1436.06  1464.37  1476.48  1628.31  1644.16
                             1770.14  1845.91  2022.95  2224.34  2232.10
                             2358.13  2515.06  4910.58  4930.90  4960.65
                             5668.46

 Zero-point correction=                           0.076989 (Hartree/Particle)
 Thermal correction to Energy=                    0.080510
 Thermal correction to Enthalpy=                  0.081454
 Thermal correction to Gibbs Free Energy=         0.050829
 Sum of electronic and zero-point Energies=           -224.726294
 Sum of electronic and thermal Energies=              -224.722773
 Sum of electronic and thermal Enthalpies=            -224.721829
 Sum of electronic and thermal Free Energies=         -224.752454

                     E (Thermal)             CV                S
                      KCAL/MOL        CAL/MOL-KELVIN    CAL/MOL-KELVIN
 TOTAL                   50.521             11.846             64.456
 ELECTRONIC               0.000              0.000              0.000
 TRANSLATIONAL            0.889              2.981             38.570
 ROTATIONAL               0.889              2.981             24.051
 VIBRATIONAL             48.743              5.884              1.835
 VIBRATION  1             0.922              1.105              0.512
                       Q            LOG10(Q)             LN(Q)
 TOTAL BOT       0.417489D-23        -23.379354        -53.832953
 TOTAL V=0       0.107855D+13         12.032840         27.706637
 VIB (BOT)       0.470207D-35        -35.327711        -81.345061
 VIB (BOT)  1    0.273053D+00         -0.563753         -1.298090
 VIB (V=0)       0.121474D+01          0.084483          0.194529
 VIB (V=0)  1    0.106970D+01          0.029262          0.067378
 ELECTRONIC      0.100000D+01          0.000000          0.000000
 TRANSLATIONAL   0.220588D+08          7.343582         16.909224
 ROTATIONAL      0.402508D+05          4.604774         10.602885
 ***** Axes restored to original set *****
 -------------------------------------------------------------------
 Center     Atomic                   Forces (Hartrees/Bohr)
 Number     Number              X              Y              Z
 -------------------------------------------------------------------
    1          1           0.000015597    0.000000000   -0.000000454
    2          6          -0.000331267    0.000000000    0.000183893
    3          1          -0.000007965    0.000000000    0.000092412
    4          6           0.000000317    0.000000000    0.000112392
    5          1          -0.000005172    0.000000000    0.000029435
    6          6           0.000286482    0.000000000    0.000066665
    7          7           0.000080528    0.000000000   -0.000130064
    8          1           0.000018466    0.000000000    0.000018905
    9          7          -0.000056985    0.000000000   -0.000373185
 -------------------------------------------------------------------
 Cartesian Forces:  Max     0.000373185 RMS     0.000124582

 GradGradGradGradGradGradGradGradGradGradGradGradGradGradGradGradGradGrad
 Berny optimization.
 Internal  Forces:  Max     0.000285153 RMS     0.000092334
 Search for a local minimum.
 Step number   1 out of a maximum of  48
 All quantities printed in internal units (Hartrees-Bohrs-Radians)
 Second derivative matrix not updated -- analytic derivatives used.
     Eigenvalues ---    0.00835   0.01468   0.02103   0.03430   0.06688
     Eigenvalues ---    0.07259   0.11033   0.12288   0.12972   0.13867
     Eigenvalues ---    0.25790   0.29332   0.39627   0.40933   0.41383
     Eigenvalues ---    0.41727   0.47375   0.48419   0.55140   0.58435
     Eigenvalues ---    0.683071000.000001000.000001000.000001000.00000
     Eigenvalues --- 1000.000001000.000001000.000001000.000001000.00000
     Eigenvalues --- 1000.000001000.000001000.000001000.000001000.00000
     Eigenvalues --- 1000.000001000.000001000.00000
 Angle between quadratic step and forces=  25.98 degrees.
 Linear search not attempted -- first point.
 Iteration  1 RMS(Cart)=  0.00025238 RMS(Int)=  0.00000004
 Iteration  2 RMS(Cart)=  0.00000004 RMS(Int)=  0.00000001
 Variable       Old X    -DE/DX   Delta X   Delta X   Delta X     New X
                                 (Linear)    (Quad)   (Total)
    R1        2.02251  -0.00001   0.00000  -0.00006  -0.00006   2.02245
    R2        2.57476   0.00016   0.00000   0.00029   0.00029   2.57505
    R3        2.53500  -0.00029   0.00000  -0.00050  -0.00050   2.53450
    R4        2.02081  -0.00009   0.00000  -0.00018  -0.00018   2.02062
    R5        2.67040   0.00005   0.00000   0.00004   0.00004   2.67044
    R6        2.02464   0.00000   0.00000  -0.00004  -0.00004   2.02460
    R7        2.46072  -0.00012   0.00000  -0.00007  -0.00007   2.46066
    R8        2.51312   0.00016   0.00000   0.00016   0.00016   2.51328
    R9        1.87348   0.00000   0.00000   0.00001   0.00001   1.87348
    A1        2.29629   0.00007   0.00000   0.00005   0.00005   2.29634
    A2        2.12524   0.00008   0.00000   0.00038   0.00038   2.12561
    A3        1.86166  -0.00015   0.00000  -0.00043  -0.00043   1.86123
    A4        2.23022  -0.00007   0.00000  -0.00013  -0.00013   2.23008
    A5        1.81286   0.00017   0.00000   0.00050   0.00050   1.81336
    A6        2.24011  -0.00011   0.00000  -0.00037  -0.00037   2.23975
    A7        2.23780   0.00013   0.00000   0.00050   0.00050   2.23830
    A8        1.95003  -0.00021   0.00000  -0.00054  -0.00054   1.94949
    A9        2.09536   0.00007   0.00000   0.00004   0.00004   2.09540
   A10        1.83201   0.00011   0.00000   0.00022   0.00022   1.83223
   A11        1.96823   0.00007   0.00000   0.00025   0.00025   1.96848
   A12        2.23123  -0.00001   0.00000   0.00017   0.00017   2.23140
   A13        2.08373  -0.00006   0.00000  -0.00043  -0.00043   2.08330
    D1        0.00000   0.00000   0.00000   0.00000   0.00000   0.00000
    D2        3.14159   0.00000   0.00000   0.00000   0.00000   3.14159
    D3        3.14159   0.00000   0.00000   0.00000   0.00000   3.14159
    D4        0.00000   0.00000   0.00000   0.00000   0.00000   0.00000
    D5        3.14159   0.00000   0.00000   0.00000   0.00000   3.14159
    D6        0.00000   0.00000   0.00000   0.00000   0.00000   0.00000
    D7        0.00000   0.00000   0.00000   0.00000   0.00000   0.00000
    D8        3.14159   0.00000   0.00000   0.00000   0.00000   3.14159
    D9        3.14159   0.00000   0.00000   0.00000   0.00000   3.14159
   D10        0.00000   0.00000   0.00000   0.00000   0.00000   0.00000
   D11        0.00000   0.00000   0.00000   0.00000   0.00000   0.00000
   D12        3.14159   0.00000   0.00000   0.00000   0.00000   3.14159
   D13        0.00000   0.00000   0.00000   0.00000   0.00000   0.00000
   D14        3.14159   0.00000   0.00000   0.00000   0.00000   3.14159
   D15        0.00000   0.00000   0.00000   0.00000   0.00000   0.00000
   D16        3.14159   0.00000   0.00000   0.00000   0.00000   3.14159
         Item               Value     Threshold  Converged?
 Maximum Force            0.000285     0.000450     YES
 RMS     Force            0.000092     0.000300     YES
 Maximum Displacement     0.000629     0.001800     YES
 RMS     Displacement     0.000252     0.001200     YES
 Predicted change in Energy=-3.624359D-07
 Optimization completed.
    -- Stationary point found.
                         ----------------------------
                         !   Optimized Parameters   !
                         ! (Angstroms and Degrees)  !
 ------------------------                            -------------------------
 ! Name  Definition              Value          Derivative Info.             !
 -----------------------------------------------------------------------------
 ! R1    R(1,2)                  1.0703         -DE/DX =    0.               !
 ! R2    R(2,4)                  1.3625         -DE/DX =    0.0002           !
 ! R3    R(2,9)                  1.3415         -DE/DX =   -0.0003           !
 ! R4    R(3,4)                  1.0694         -DE/DX =   -0.0001           !
 ! R5    R(4,6)                  1.4131         -DE/DX =    0.               !
 ! R6    R(5,6)                  1.0714         -DE/DX =    0.               !
 ! R7    R(6,7)                  1.3022         -DE/DX =   -0.0001           !
 ! R8    R(7,9)                  1.3299         -DE/DX =    0.0002           !
 ! R9    R(8,9)                  0.9914         -DE/DX =    0.               !
 ! A1    A(1,2,4)              131.5678         -DE/DX =    0.0001           !
 ! A2    A(1,2,9)              121.7671         -DE/DX =    0.0001           !
 ! A3    A(4,2,9)              106.6651         -DE/DX =   -0.0001           !
 ! A4    A(2,4,3)              127.7819         -DE/DX =   -0.0001           !
 ! A5    A(2,4,6)              103.8691         -DE/DX =    0.0002           !
 ! A6    A(3,4,6)              128.349          -DE/DX =   -0.0001           !
 ! A7    A(4,6,5)              128.2166         -DE/DX =    0.0001           !
 ! A8    A(4,6,7)              111.7284         -DE/DX =   -0.0002           !
 ! A9    A(5,6,7)              120.0551         -DE/DX =    0.0001           !
 ! A10   A(6,7,9)              104.9664         -DE/DX =    0.0001           !
 ! A11   A(2,9,7)              112.7711         -DE/DX =    0.0001           !
 ! A12   A(2,9,8)              127.84           -DE/DX =    0.               !
 ! A13   A(7,9,8)              119.3889         -DE/DX =   -0.0001           !
 ! D1    D(1,2,4,3)              0.             -DE/DX =    0.               !
 ! D2    D(1,2,4,6)            180.             -DE/DX =    0.               !
 ! D3    D(9,2,4,3)            180.             -DE/DX =    0.               !
 ! D4    D(9,2,4,6)              0.             -DE/DX =    0.               !
 ! D5    D(1,2,9,7)            180.             -DE/DX =    0.               !
 ! D6    D(1,2,9,8)              0.             -DE/DX =    0.               !
 ! D7    D(4,2,9,7)              0.             -DE/DX =    0.               !
 ! D8    D(4,2,9,8)            180.             -DE/DX =    0.               !
 ! D9    D(2,4,6,5)            180.             -DE/DX =    0.               !
 ! D10   D(2,4,6,7)              0.             -DE/DX =    0.               !
 ! D11   D(3,4,6,5)              0.             -DE/DX =    0.               !
 ! D12   D(3,4,6,7)            180.             -DE/DX =    0.               !
 ! D13   D(4,6,7,9)              0.             -DE/DX =    0.               !
 ! D14   D(5,6,7,9)            180.             -DE/DX =    0.               !
 ! D15   D(6,7,9,2)              0.             -DE/DX =    0.               !
 ! D16   D(6,7,9,8)            180.             -DE/DX =    0.               !
 -----------------------------------------------------------------------------
 GradGradGradGradGradGradGradGradGradGradGradGradGradGradGradGradGradGrad

 1\1\GINC-QCHEM5\Freq\RHF\6-31G(d,p)\C3H4N2\RDJ3\03-Apr-2000\0\\#N GEOM
 =ALLCHECK GUESS=TCHECK RHF/6-31G(D,P) FREQ\\1H pyrazole C3H4N2 casno=2
 88131\\0,1\H,-1.8722554164,0.,-1.1596478419\C,-0.9259860842,0.,-0.6596
 00911\H,0.6658629717,0.,-2.1600260203\C,0.3495797286,0.,-1.1385052339\
 H,2.2179843116,0.,0.0972443061\C,1.1489097034,0.,0.0268151552\N,0.4240
 67701,0.,1.1085830221\H,-1.5740387992,0.,1.3389358259\N,-0.8344352945,
 0.,0.6787369305\\Version=x86-Linux-G98RevA.4\State=1-A'\HF=-224.803282
 7\RMSD=1.981e-09\RMSF=1.246e-04\Dipole=-0.8100458,0.,-0.5014394\Dipole
 Deriv=-0.015558,0.,-0.0512666,0.,0.1766676,0.,-0.0395665,0.,0.0778494,
 0.2962179,0.,-0.1125922,0.,-0.0168492,0.,-0.3794402,0.,0.312174,0.0891
 473,0.,0.0309415,0.,0.1814441,0.,0.0371334,0.,-0.0412408,-0.4276991,0.
 ,-0.0325607,0.,-0.2809358,0.,-0.074017,0.,0.012751,-0.0741411,0.,-0.01
 54836,0.,0.1367203,0.,-0.033742,0.,0.0753001,0.3459448,0.,0.1619444,0.
 ,-0.0054067,0.,0.2769379,0.,0.2380251,0.0250887,0.,-0.3026084,0.,-0.26
 52306,0.,-0.0954832,0.,-0.6688651,0.236109,0.,-0.0590688,0.,0.3505259,
 0.,-0.0486017,0.,0.2461421,-0.4751094,0.,0.3806943,0.,-0.2769357,0.,0.
 3567792,0.,-0.2521358\Polar=46.7138291,0.,17.1204312,-1.318975,0.,42.4
 998198\PolarDeriv=-7.3790484,0.,-0.3956029,-2.9844643,0.,-1.7138285,0.
 ,-0.8588011,0.,0.,-0.6146424,0.,-2.6434045,0.,-0.2860873,-2.5329684,0.
 ,-2.3223428,-2.1700277,0.,-0.4648002,-2.4607143,0.,-3.8701781,0.,-4.48
 28956,0.,0.,-0.6912342,0.,-1.1005378,0.,0.0492804,2.9435032,0.,0.39672
 59,1.4310672,0.,0.0993854,-1.8620291,0.,1.6256799,0.,0.0449199,0.,0.,-
 1.1949426,0.,-1.060597,0.,-0.404793,2.1663288,0.,-8.5104276,2.2497993,
 0.,0.0682849,5.4405879,0.,3.9824574,0.,2.849258,0.,0.,-3.1782862,0.,-2
 .3415586,0.,0.031305,2.136832,0.,1.276121,10.0722092,0.,0.4862112,0.67
 88921,0.,0.6244065,0.,1.5196326,0.,0.,0.308443,0.,0.4256189,0.,0.01477
 55,1.4852022,0.,0.0633944,-0.4939396,0.,0.1527771,-1.9208532,0.,1.4693
 042,0.,2.6336616,0.,0.,-0.5303613,0.,0.8817932,0.,0.1814358,-5.9603082
 ,0.,-6.7012974,2.2660121,0.,-0.2258878,-1.2103789,0.,-1.4653846,0.,0.3
 68049,0.,0.,3.7662705,0.,1.8859842,0.,0.3079205,4.6015331,0.,13.003782
 4,-4.8788209,0.,-0.0738815,3.2383142,0.,-2.7248015,0.,-0.8008283,0.,0.
 ,0.6391312,0.,2.6623861,0.,0.1348173,-3.0304326,0.,4.1263614,-1.097251
 3,0.,0.3535138,1.0806457,0.,2.0723447,0.,-1.2729961,0.,0.,1.495622,0.,
 1.2903155,0.,-0.0286542,-1.8096902,0.,-1.3323174\HyperPolar=-17.890427
 9,0.,-0.4484478,0.,11.0305515,0.,-4.2053102,0.0597598,0.,-42.6459665\P
 G=CS [SG(C3H4N2)]\NImag=0\\0.33532613,0.,0.02812737,0.14626009,0.,0.13
 935574,-0.33079258,0.,-0.12279411,0.99123851,0.,-0.03888546,0.,0.,0.15
 847851,-0.13394003,0.,-0.13912111,0.10796115,0.,0.74552965,0.00035428,
 0.,-0.00105668,0.00379261,0.,0.03037747,0.08829734,0.,-0.00371669,0.,0
 .,-0.00083423,0.,0.,0.02668376,0.00069718,0.,-0.00022580,-0.00287059,0
 .,0.00007948,-0.10162159,0.,0.38269896,-0.00789239,0.,0.00969512,-0.40
 621889,0.,0.07270813,-0.09933931,0.,0.09300290,0.71244015,0.,0.0044543
 4,0.,0.,-0.08122917,0.,0.,-0.03310276,0.,0.,0.14298836,-0.01787351,0.,
 0.01597720,0.12008989,0.,-0.17730677,0.09073189,0.,-0.36894198,-0.1493
 6480,0.,0.93339997,-0.00028054,0.,0.00032818,-0.00091856,0.,-0.0017063
 5,-0.00019576,0.,-0.00067674,-0.00509792,0.,0.00417494,0.40844434,0.,0
 .00069179,0.,0.,0.00497424,0.,0.,-0.00198935,0.,0.,0.00283866,0.,0.,0.
 03159082,-0.00125076,0.,0.00124968,-0.00363709,0.,-0.00714650,0.001133
 89,0.,0.00007976,-0.02461949,0.,0.00952499,0.02214047,0.,0.06636318,-0
 .00542733,0.,0.00519649,-0.06034544,0.,0.00103769,0.01681491,0.,0.0140
 8621,-0.20437208,0.,-0.10761889,-0.38582792,0.,-0.03618858,1.01465628,
 0.,0.00650923,0.,0.,0.01354227,0.,0.,-0.00267602,0.,0.,-0.08160654,0.,
 0.,-0.04232950,0.,0.,0.17758989,0.00173766,0.,-0.00182329,-0.08763985,
 0.,0.06202627,-0.01693349,0.,-0.00961953,-0.05626750,0.,-0.25277035,-0
 .02604493,0.,-0.07527223,-0.05200282,0.,0.72148348,0.00099921,0.,0.001
 73196,-0.07172138,0.,-0.04849128,-0.00258716,0.,-0.00186897,0.04475523
 ,0.,0.05262733,-0.01564113,0.,0.03362744,-0.23232212,0.,0.17410544,0.6
 0138975,0.,0.00746162,0.,0.,0.01852738,0.,0.,0.00682118,0.,0.,0.026511
 82,0.,0.,-0.00786899,0.,0.,-0.08814902,0.,0.,0.12413830,0.00227188,0.,
 -0.00664629,-0.01760453,0.,-0.08753453,-0.00741213,0.,-0.00494079,-0.0
 4618356,0.,-0.08822704,-0.00126936,0.,0.00929538,0.15254208,0.,-0.3968
 1641,-0.07372596,0.,0.70273754,-0.00030051,0.,0.00056799,0.01264389,0.
 ,-0.00322568,0.00086759,0.,-0.00008698,0.00358930,0.,-0.00357495,-0.00
 053052,0.,0.00160113,-0.00832275,0.,-0.00759642,-0.02098118,0.,0.03031
 858,0.34159267,0.,-0.00204556,0.,0.,-0.00864914,0.,0.,0.00266834,0.,0.
 ,0.00355107,0.,0.,0.00239535,0.,0.,0.00486342,0.,0.,-0.01405369,0.,0.,
 0.01406592,-0.00092054,0.,0.00020449,0.02964340,0.,-0.00478994,0.00138
 731,0.,0.00016041,-0.00306005,0.,-0.00811085,-0.00061831,0.,0.00109607
 ,-0.00724989,0.,0.00155979,-0.01078670,0.,0.02008626,-0.23468017,0.,0.
 28858102,0.00801372,0.,-0.03992903,-0.13767816,0.,-0.02472110,-0.00800
 450,0.,-0.00066141,-0.03786408,0.,0.01080811,0.00004800,0.,0.00719299,
 -0.13485354,0.,0.07064190,-0.30389122,0.,-0.03893699,-0.32855849,0.,0.
 22628495,0.94278828,0.,-0.00259664,0.,0.,-0.06592441,0.,0.,0.00614578,
 0.,0.,0.01559422,0.,0.,0.00969697,0.,0.,0.01225627,0.,0.,-0.07338860,0
 .,0.,-0.00279572,0.,0.,0.10101214,0.00301804,0.,-0.00897063,-0.0231482
 8,0.,-0.39173654,0.00339334,0.,0.00070950,0.10408926,0.,-0.06354517,0.
 00367210,0.,-0.00519032,0.03019771,0.,-0.04876773,-0.12721926,0.,-0.14
 795414,0.21667649,0.,-0.29878725,-0.21067941,0.,0.96424228\\-0.0000156
 0,0.,0.00000045,0.00033127,0.,-0.00018389,0.00000797,0.,-0.00009241,-0
 .00000032,0.,-0.00011239,0.00000517,0.,-0.00002944,-0.00028648,0.,-0.0
 0006667,-0.00008053,0.,0.00013006,-0.00001847,0.,-0.00001890,0.0000569
 9,0.,0.00037318\\\@

 "PERFECTION IS NOT AN ACCIDENT"
         --  EAGLE ELECTRIC MANUFACTURING CO.,INC. NY
 Job cpu time:  0 days  0 hours 13 minutes 44.1 seconds.
 File lengths (MBytes):  RWF=   15 Int=    0 D2E=    0 Chk=    3 Scr=    1
 Normal termination of Gaussian 98.
