 Gaussian 09, Revision A.02,
 Gaussian 09:  AM64L-G09RevA.02 11-Jun-2009

 -----------------
 #HF/TZVP opt freq
 -----------------

 -------------------------------------------------
 1H pyrazole C3H4N2 casno=288131 method=1 basis=32
 -------------------------------------------------
 Symbolic Z-matrix:
 Charge =  0 Multiplicity = 1

 SCF Done:  E(RHF) =  -224.815446584     A.U. after   14 cycles
 SCF Done:  E(RHF) =  -224.860225323     A.U. after   13 cycles
 SCF Done:  E(RHF) =  -224.865635291     A.U. after   13 cycles
 SCF Done:  E(RHF) =  -224.865908966     A.U. after   12 cycles
 SCF Done:  E(RHF) =  -224.866018056     A.U. after   10 cycles
 SCF Done:  E(RHF) =  -224.866029887     A.U. after   10 cycles
 Optimization completed.
    -- Stationary point found.
 Normal termination of Gaussian 09 at Wed Jan 19 11:04:31 2011.

 -------------------------------------------------------------
 #N Geom=AllCheck Guess=TCheck SCRF=Check GenChk RHF/TZVP Freq
 -------------------------------------------------------------

 1H pyrazole C3H4N2 casno=288131 method=1 basis=32
 -------------------------------------------------
 Redundant internal coordinates taken from checkpoint file:
 /gaussian/Gau-16676.chk
 Charge =  0 Multiplicity = 1

                         Standard orientation:
 ---------------------------------------------------------------------
 Center     Atomic      Atomic             Coordinates (Angstroms)
 Number     Number       Type             X           Y           Z
 ---------------------------------------------------------------------
      1          1           0        2.078952    0.719083    0.000000
      2          6           0        1.094547    0.301825    0.000000
      3          1           0        1.254357   -1.876129    0.000000
      4          6           0        0.661849   -0.987509    0.000000
      5          1           0       -1.474877   -1.657372    0.000000
      6          6           0       -0.746000   -0.873866    0.000000
      7          7           0       -1.124843    0.368489    0.000000
      8          1           0       -0.046905    2.064918    0.000000
      9          7           0        0.000000    1.075339    0.000000
 ---------------------------------------------------------------------

 SCF Done:  E(RHF) =  -224.866029887     A.U. after    1 cycles

 The electronic state is 1-A'.
 Alpha  occ. eigenvalues --  -15.63612 -15.58104 -11.27207 -11.24526 -11.21639
 Alpha  occ. eigenvalues --   -1.39433  -1.11001  -1.05884  -0.82915  -0.81082
 Alpha  occ. eigenvalues --   -0.75011  -0.61987  -0.61647  -0.59704  -0.56716
 Alpha  occ. eigenvalues --   -0.45716  -0.36851  -0.35011
 Alpha virt. eigenvalues --    0.13739   0.15872   0.18520   0.19441   0.20755
 Alpha virt. eigenvalues --    0.21242   0.24610   0.27319   0.30295   0.32571
 Alpha virt. eigenvalues --    0.33734   0.38898   0.39718   0.39979   0.45772

 Mulliken atomic charges:
              1
     1  H    0.127253
     2  C   -0.227994
     3  H    0.132545
     4  C    0.000189
     5  H    0.110447
     6  C   -0.215507
     7  N   -0.122914
     8  H    0.247891
     9  N   -0.051910
 Sum of Mulliken atomic charges =   0.00000

 Dipole moment (field-independent basis, Debye):
    X=              2.2943    Y=              0.8390    Z=              0.0000  Tot=              2.4429
 Quadrupole moment (field-independent basis, Debye-Ang):
   XX=            -29.9391   YY=            -22.2629   ZZ=            -32.4667
   XY=              2.9014   XZ=              0.0000   YZ=              0.0000

  Exact polarizability:  46.647   1.380  49.309   0.000   0.000  27.557
 Approx polarizability:  44.381   0.686  47.665   0.000   0.000  28.420

                     1                      2                      3
                    A"                     A"                     A"
 Frequencies --   554.7772               684.3682               743.1603
 Red. masses --     1.6967                 2.2743                 2.9017
 Frc consts  --     0.3077                 0.6276                 0.9442
 IR Inten    --    77.7248                 0.0570                22.5554
 Raman Activ --     0.7065                 0.0505                 0.2021

                     4                      5                      6
                    A"                     A"                     A'
 Frequencies --   846.0394               980.1089              1001.3960
 Red. masses --     1.1881                 1.2703                 5.7649
 Frc consts  --     0.5011                 0.7189                 3.4061
 IR Inten    --   112.2911                 2.6704                13.1246
 Raman Activ --     0.0185                 0.2661                 4.9350

                     7                      8                      9
                    A"                     A'                     A'
 Frequencies --  1015.9806              1018.4224              1119.2721
 Red. masses --     1.3771                 4.3470                 1.5857
 Frc consts  --     0.8375                 2.6564                 1.1704
 IR Inten    --     5.3231                 6.4515                 0.5146
 Raman Activ --     1.1238                 1.6322                 0.8317

                    10                     11                     12
                    A'                     A'                     A'
 Frequencies --  1131.3186              1218.5288              1269.8804
 Red. masses --     1.7427                 1.9448                 2.6386
 Frc consts  --     1.3141                 1.7013                 2.5070
 IR Inten    --    57.8008                31.8363                 1.6979
 Raman Activ --     1.5044                 9.0437                21.5487

                    13                     14                     15
                    A'                     A'                     A'
 Frequencies --  1398.0154              1529.9918              1531.5830
 Red. masses --     1.6880                 3.3292                 2.4398
 Frc consts  --     1.9437                 4.5916                 3.3720
 IR Inten    --     2.6036                24.3432                12.3210
 Raman Activ --    13.3185                44.0233                11.0788

                    16                     17                     18
                    A'                     A'                     A'
 Frequencies --  1615.8999              1729.1164              3394.8069
 Red. masses --     2.4325                 2.9204                 1.0950
 Frc consts  --     3.7422                 5.1444                 7.4353
 IR Inten    --    13.4445                10.5048                 5.9623
 Raman Activ --     2.5124                 2.0060                90.4623

                    19                     20                     21
                    A'                     A'                     A'
 Frequencies --  3407.7088              3427.5995              3913.0552
 Red. masses --     1.0956                 1.1084                 1.0828
 Frc consts  --     7.4962                 7.6724                 9.7681
 IR Inten    --     2.8307                 0.5014               119.8969
 Raman Activ --    27.4274               120.5271                76.9600

 - Thermochemistry -
 -------------------
 Temperature   298.150 Kelvin.  Pressure   1.00000 Atm.
 Atom     1 has atomic number  1 and mass   1.00783

 Molecular mass:    68.03745 amu.
 Principal axes and moments of inertia in atomic units:
                           1         2         3
     Eigenvalues --   182.37051 186.50623 368.87673
           X            0.95139   0.30798   0.00000
           Y           -0.30798   0.95139   0.00000
           Z            0.00000   0.00000   1.00000
 This molecule is an asymmetric top.
 Rotational symmetry number  1.
 Rotational temperatures (Kelvin)      0.47493     0.46440     0.23480
 Rotational constants (GHZ):           9.89601     9.67657     4.89253
 Zero-point vibrational energy     200560.1 (Joules/Mol)
                                   47.93501 (Kcal/Mol)
 Warning -- explicit consideration of   1 degrees of freedom as
           vibrations may cause significant error
 Vibrational temperatures:    798.20   984.65  1069.24  1217.26  1410.16
          (Kelvin)           1440.78  1461.77  1465.28  1610.38  1627.71
                             1753.19  1827.07  2011.43  2201.31  2203.60
                             2324.92  2487.81  4884.36  4902.93  4931.55
                             5630.01

 Zero-point correction=                           0.076389 (Hartree/Particle)
 Thermal correction to Energy=                    0.079930
 Thermal correction to Enthalpy=                  0.080874
 Thermal correction to Gibbs Free Energy=         0.050225
 Sum of electronic and zero-point Energies=           -224.789641
 Sum of electronic and thermal Energies=              -224.786100
 Sum of electronic and thermal Enthalpies=            -224.785156
 Sum of electronic and thermal Free Energies=         -224.815805

                     E (Thermal)             CV                S
                      KCal/Mol        Cal/Mol-Kelvin    Cal/Mol-Kelvin
 Total                   50.157             11.968             64.506
 Electronic               0.000              0.000              0.000
 Translational            0.889              2.981             38.570
 Rotational               0.889              2.981             24.043
 Vibrational             48.379              6.007              1.892
 Vibration     1          0.910              1.129              0.534

 Optimization completed.
    -- Stationary point found.
 Normal termination of Gaussian 09 at Wed Jan 19 11:08:32 2011.
