 Gaussian 98, Revision A.6,
 Gaussian 98:  IBM-RS6000-G98RevA.6 19-Oct-1998

 ---------------------
 #HF/6-31+G** opt freq
 ---------------------

 -------------------------------
 1H pyrazole C3H4N2 casno=288131
 -------------------------------
 Symbolic Z-matrix:
 Charge =  0 Multiplicity = 1

 SCF Done:  E(RHF) =  -224.757188899     A.U. after   14 cycles
 SCF Done:  E(RHF) =  -224.805015583     A.U. after   13 cycles
 SCF Done:  E(RHF) =  -224.811126179     A.U. after   13 cycles
 SCF Done:  E(RHF) =  -224.811339524     A.U. after   12 cycles
 SCF Done:  E(RHF) =  -224.811419016     A.U. after   10 cycles
 SCF Done:  E(RHF) =  -224.811424399     A.U. after   10 cycles
 Optimization completed.
    -- Stationary point found.
 Normal termination of Gaussian 98.

 --------------------------------------------------
 #N Geom=AllCheck Guess=TCheck RHF/6-31+G(d,p) Freq
 --------------------------------------------------

 1H pyrazole C3H4N2 casno=288131
 -------------------------------
 Redundant internal coordinates taken from checkpointfile:
 /wrk/rdj3/Gau-5320.chk
 Charge =  0 Multiplicity = 1

                         Standard orientation:
 ---------------------------------------------------------------------
 Center     Atomic     Atomic              Coordinates (Angstroms)
 Number     Number      Type              X           Y           Z
 ---------------------------------------------------------------------
    1          1             0        2.081798    0.721854    0.000000
    2          6             0        1.096711    0.303510    0.000000
    3          1             0        1.256041   -1.880648    0.000000
    4          6             0        0.662708   -0.990869    0.000000
    5          1             0       -1.477587   -1.659437    0.000000
    6          6             0       -0.747095   -0.876180    0.000000
    7          7             0       -1.126813    0.370774    0.000000
    8          1             0       -0.046505    2.067523    0.000000
    9          7             0        0.000000    1.076646    0.000000
 ---------------------------------------------------------------------

 SCF Done:  E(RHF) =  -224.811424399     A.U. after    1 cycles

  The electronic state is 1-A'.
 Alpha  occ. eigenvalues --  -15.64751 -15.59264 -11.27981 -11.25292 -11.22446
 Alpha  occ. eigenvalues --   -1.39476  -1.11094  -1.05955  -0.83056  -0.81152
 Alpha  occ. eigenvalues --   -0.75018  -0.61975  -0.61615  -0.59796  -0.56706
 Alpha  occ. eigenvalues --   -0.45787  -0.36817  -0.34973
 Alpha virt. eigenvalues --    0.06345   0.08354   0.09238   0.11342   0.11500
 Alpha virt. eigenvalues --    0.12272   0.12879   0.15183   0.16367   0.17733
 Alpha virt. eigenvalues --    0.19428   0.19695   0.21921   0.23544   0.24219

  Exact polarizability:  48.314   0.985  50.409   0.000   0.000  29.966
 Approx polarizability:  45.498   0.530  48.508   0.000   0.000  29.656

                     1                      2                      3
                    A"                     A"                     A"
 Frequencies --   579.2562               685.5637               741.8524
 Red. masses --     1.7110                 2.2312                 2.8125
 Frc consts  --     0.3383                 0.6179                 0.9120
 IR Inten    --    86.9421                 0.1100                24.8283
 Raman Activ --     0.2946                 0.1670                 0.5667

                     4                      5                      6
                    A"                     A"                     A'
 Frequencies --   850.2660               984.4167               996.4004
 Red. masses --     1.1896                 1.2793                 5.7596
 Frc consts  --     0.5067                 0.7304                 3.3691
 IR Inten    --   123.5680                 2.5237                13.5072
 Raman Activ --     0.6643                 1.2821                 4.5737

                     7                      8                      9
                    A'                     A"                     A'
 Frequencies --  1015.4801              1022.7134              1127.9381
 Red. masses --     4.3530                 1.3917                 1.5312
 Frc consts  --     2.6447                 0.8576                 1.1478
 IR Inten    --     5.2343                 5.0229                 0.2859
 Raman Activ --     1.3964                 0.6025                 0.6112

                    10                     11                     12
                    A'                     A'                     A'
 Frequencies --  1140.3912              1226.7900              1279.0115
 Red. masses --     1.6746                 1.9315                 2.6982
 Frc consts  --     1.2832                 1.7127                 2.6006
 IR Inten    --    57.3580                30.5577                 3.1483
 Raman Activ --     1.4820                10.5568                25.4407

                    13                     14                     15
                    A'                     A'                     A'
 Frequencies --  1402.6164              1539.7521              1544.5834
 Red. masses --     1.6249                 2.5024                 3.6087
 Frc consts  --     1.8834                 3.4955                 5.0726
 IR Inten    --     3.0451                 2.7120                33.8451
 Raman Activ --    13.7750                14.5880                48.0656

                    16                     17                     18
                    A'                     A'                     A'
 Frequencies --  1630.1230              1735.6669              3417.6360
 Red. masses --     2.5456                 3.0277                 1.0939
 Frc consts  --     3.9855                 5.3741                 7.5281
 IR Inten    --    14.7839                11.5774                 5.0444
 Raman Activ --     3.3894                 2.4411                93.7187

                    19                     20                     21
                    A'                     A'                     A'
 Frequencies --  3429.5018              3448.3424              3935.9381
 Red. masses --     1.0962                 1.1084                 1.0829
 Frc consts  --     7.5962                 7.7656                 9.8844
 IR Inten    --     3.9208                 0.4150               123.6385
 Raman Activ --    24.3320               120.5587                78.4582

 - Thermochemistry -
 -------------------
 Temperature   298.150 Kelvin.  Pressure   1.00000 Atm.
 Atom  1 has atomic number  1 and mass   1.00783

 Molecular mass:    68.03745 amu.
 Principal axes and moments of inertia in atomic units:
                           1         2         3
     EIGENVALUES --   183.18280 187.18978 370.37257
           X            0.94271   0.33361   0.00000
           Y           -0.33361   0.94271   0.00000
           Z            0.00000   0.00000   1.00000
 THIS MOLECULE IS AN ASYMMETRIC TOP.
 ROTATIONAL SYMMETRY NUMBER  1.
 ROTATIONAL TEMPERATURES (KELVIN)      0.47283     0.46270     0.23385
 ROTATIONAL CONSTANTS (GHZ)            9.85213     9.64124     4.87277
 Zero-point vibrational energy     201775.6 (Joules/Mol)
                                   48.22552 (Kcal/Mol)
 WARNING-- EXPLICIT CONSIDERATION OF   1 DEGREES OF FREEDOM AS
           VIBRATIONS MAY CAUSE SIGNIFICANT ERROR
 VIBRATIONAL TEMPERATURES:    833.42   986.37  1067.35  1223.34  1416.35
          (KELVIN)           1433.59  1461.04  1471.45  1622.84  1640.76
                             1765.07  1840.20  2018.04  2215.35  2222.30
                             2345.37  2497.22  4917.19  4934.26  4961.37
                             5662.90

 Zero-point correction=                           0.076852 (Hartree/Particle)
 Thermal correction to Energy=                    0.080373
 Thermal correction to Enthalpy=                  0.081317
 Thermal correction to Gibbs Free Energy=         0.050691
 Sum of electronic and zero-point Energies=           -224.734572
 Sum of electronic and thermal Energies=              -224.731051
 Sum of electronic and thermal Enthalpies=            -224.730107
 Sum of electronic and thermal Free Energies=         -224.760733

                     E (Thermal)             CV                S
                      KCAL/MOL        CAL/MOL-KELVIN    CAL/MOL-KELVIN
 TOTAL                   50.435             11.871             64.458
 ELECTRONIC               0.000              0.000              0.000
 TRANSLATIONAL            0.889              2.981             38.570
 ROTATIONAL               0.889              2.981             24.056
 VIBRATIONAL             48.657              5.910              1.832
 VIBRATION  1             0.936              1.076              0.487
                       Q            LOG10(Q)             LN(Q)
 TOTAL BOT       0.482815D-23        -23.316220        -53.687580
 TOTAL V=0       0.107926D+13         12.033128         27.707300
 VIB (BOT)       0.542558D-35        -35.265554        -81.201939
 VIB (BOT)  1    0.263263D+00         -0.579610         -1.334602
 VIB (V=0)       0.121281D+01          0.083793          0.192941
 VIB (V=0)  1    0.106507D+01          0.027379          0.063043
 ELECTRONIC      0.100000D+01          0.000000          0.000000
 TRANSLATIONAL   0.220588D+08          7.343582         16.909224
 ROTATIONAL      0.403415D+05          4.605752         10.605136
 ***** Axes restored to original set *****
 -------------------------------------------------------------------
 Center     Atomic                   Forces (Hartrees/Bohr)
 Number     Number              X              Y              Z
 -------------------------------------------------------------------
    1          1           0.000011404    0.000000000    0.000000170
    2          6          -0.000326083    0.000000000    0.000198952
    3          1          -0.000004203    0.000000000    0.000086078
    4          6           0.000014556    0.000000000    0.000130541
    5          1           0.000002772    0.000000000    0.000027205
    6          6           0.000294172    0.000000000    0.000052423
    7          7           0.000042890    0.000000000   -0.000159921
    8          1           0.000016004    0.000000000    0.000020422
    9          7          -0.000051511    0.000000000   -0.000355871
 -------------------------------------------------------------------
 Cartesian Forces:  Max     0.000355871 RMS     0.000124445

 GradGradGradGradGradGradGradGradGradGradGradGradGradGradGradGradGradGrad
 Berny optimization.
 Internal  Forces:  Max     0.000292817 RMS     0.000093340
 Search for a local minimum.
 Step number   1 out of a maximum of  48
 All quantities printed in internal units (Hartrees-Bohrs-Radians)
 Second derivative matrix not updated -- analytic derivatives used.
     Eigenvalues ---    0.00879   0.01455   0.02092   0.03381   0.06595
     Eigenvalues ---    0.07156   0.10971   0.12227   0.12914   0.13846
     Eigenvalues ---    0.25865   0.29248   0.39362   0.41011   0.41428
     Eigenvalues ---    0.41671   0.47015   0.47954   0.54989   0.57459
     Eigenvalues ---    0.675061000.000001000.000001000.000001000.00000
     Eigenvalues --- 1000.000001000.000001000.000001000.000001000.00000
     Eigenvalues --- 1000.000001000.000001000.000001000.000001000.00000
     Eigenvalues --- 1000.000001000.000001000.00000
 Angle between quadratic step and forces=  25.56 degrees.
 Linear search not attempted -- first point.
 Iteration  1 RMS(Cart)=  0.00025747 RMS(Int)=  0.00000004
 Iteration  2 RMS(Cart)=  0.00000005 RMS(Int)=  0.00000000
 Variable       Old X    -DE/DX   Delta X   Delta X   Delta X     New X
                                 (Linear)    (Quad)   (Total)
    R1        2.02246  -0.00001   0.00000  -0.00005  -0.00005   2.02240
    R2        2.57986   0.00017   0.00000   0.00033   0.00033   2.58018
    R3        2.53570  -0.00029   0.00000  -0.00052  -0.00052   2.53517
    R4        2.02099  -0.00008   0.00000  -0.00017  -0.00017   2.02082
    R5        2.67294   0.00003   0.00000   0.00000   0.00000   2.67294
    R6        2.02396   0.00000   0.00000  -0.00002  -0.00002   2.02394
    R7        2.46323  -0.00012   0.00000  -0.00006  -0.00006   2.46318
    R8        2.51267   0.00013   0.00000   0.00010   0.00010   2.51277
    R9        1.87455   0.00000   0.00000   0.00001   0.00001   1.87456
    A1        2.29591   0.00007   0.00000   0.00006   0.00006   2.29597
    A2        2.12595   0.00008   0.00000   0.00037   0.00037   2.12632
    A3        1.86132  -0.00014   0.00000  -0.00042  -0.00042   1.86090
    A4        2.22996  -0.00007   0.00000  -0.00013  -0.00013   2.22982
    A5        1.81314   0.00017   0.00000   0.00050   0.00050   1.81365
    A6        2.24009  -0.00011   0.00000  -0.00037  -0.00037   2.23971
    A7        2.24018   0.00014   0.00000   0.00051   0.00051   2.24069
    A8        1.94756  -0.00022   0.00000  -0.00058  -0.00058   1.94698
    A9        2.09544   0.00008   0.00000   0.00007   0.00007   2.09551
   A10        1.83483   0.00013   0.00000   0.00027   0.00027   1.83510
   A11        1.96792   0.00006   0.00000   0.00023   0.00023   1.96814
   A12        2.23174  -0.00001   0.00000   0.00019   0.00019   2.23193
   A13        2.08353  -0.00005   0.00000  -0.00041  -0.00041   2.08311
    D1        0.00000   0.00000   0.00000   0.00000   0.00000   0.00000
    D2        3.14159   0.00000   0.00000   0.00000   0.00000   3.14159
    D3        3.14159   0.00000   0.00000   0.00000   0.00000   3.14159
    D4        0.00000   0.00000   0.00000   0.00000   0.00000   0.00000
    D5        3.14159   0.00000   0.00000   0.00000   0.00000   3.14159
    D6        0.00000   0.00000   0.00000   0.00000   0.00000   0.00000
    D7        0.00000   0.00000   0.00000   0.00000   0.00000   0.00000
    D8        3.14159   0.00000   0.00000   0.00000   0.00000   3.14159
    D9        3.14159   0.00000   0.00000   0.00000   0.00000   3.14159
   D10        0.00000   0.00000   0.00000   0.00000   0.00000   0.00000
   D11        0.00000   0.00000   0.00000   0.00000   0.00000   0.00000
   D12        3.14159   0.00000   0.00000   0.00000   0.00000   3.14159
   D13        0.00000   0.00000   0.00000   0.00000   0.00000   0.00000
   D14        3.14159   0.00000   0.00000   0.00000   0.00000   3.14159
   D15        0.00000   0.00000   0.00000   0.00000   0.00000   0.00000
   D16        3.14159   0.00000   0.00000   0.00000   0.00000   3.14159
         Item               Value     Threshold  Converged?
 Maximum Force            0.000293     0.000450     YES
 RMS     Force            0.000093     0.000300     YES
 Maximum Displacement     0.000633     0.001800     YES
 RMS     Displacement     0.000257     0.001200     YES
 Predicted change in Energy=-3.753403D-07
 Optimization completed.
    -- Stationary point found.
                         ----------------------------
                         !   Optimized Parameters   !
                         ! (Angstroms and Degrees)  !
 ------------------------                            -------------------------
 ! Name  Definition              Value          Derivative Info.             !
 -----------------------------------------------------------------------------
 ! R1    R(1,2)                  1.0702         -DE/DX =    0.               !
 ! R2    R(2,4)                  1.3652         -DE/DX =    0.0002           !
 ! R3    R(2,9)                  1.3418         -DE/DX =   -0.0003           !
 ! R4    R(3,4)                  1.0695         -DE/DX =   -0.0001           !
 ! R5    R(4,6)                  1.4145         -DE/DX =    0.               !
 ! R6    R(5,6)                  1.071          -DE/DX =    0.               !
 ! R7    R(6,7)                  1.3035         -DE/DX =   -0.0001           !
 ! R8    R(7,9)                  1.3296         -DE/DX =    0.0001           !
 ! R9    R(8,9)                  0.992          -DE/DX =    0.               !
 ! A1    A(1,2,4)              131.5461         -DE/DX =    0.0001           !
 ! A2    A(1,2,9)              121.8079         -DE/DX =    0.0001           !
 ! A3    A(4,2,9)              106.6461         -DE/DX =   -0.0001           !
 ! A4    A(2,4,3)              127.7672         -DE/DX =   -0.0001           !
 ! A5    A(2,4,6)              103.8854         -DE/DX =    0.0002           !
 ! A6    A(3,4,6)              128.3475         -DE/DX =   -0.0001           !
 ! A7    A(4,6,5)              128.3528         -DE/DX =    0.0001           !
 ! A8    A(4,6,7)              111.5872         -DE/DX =   -0.0002           !
 ! A9    A(5,6,7)              120.06           -DE/DX =    0.0001           !
 ! A10   A(6,7,9)              105.128          -DE/DX =    0.0001           !
 ! A11   A(2,9,7)              112.7534         -DE/DX =    0.0001           !
 ! A12   A(2,9,8)              127.8694         -DE/DX =    0.               !
 ! A13   A(7,9,8)              119.3773         -DE/DX =   -0.0001           !
 ! D1    D(1,2,4,3)              0.             -DE/DX =    0.               !
 ! D2    D(1,2,4,6)            180.             -DE/DX =    0.               !
 ! D3    D(9,2,4,3)            180.             -DE/DX =    0.               !
 ! D4    D(9,2,4,6)              0.             -DE/DX =    0.               !
 ! D5    D(1,2,9,7)            180.             -DE/DX =    0.               !
 ! D6    D(1,2,9,8)              0.             -DE/DX =    0.               !
 ! D7    D(4,2,9,7)              0.             -DE/DX =    0.               !
 ! D8    D(4,2,9,8)            180.             -DE/DX =    0.               !
 ! D9    D(2,4,6,5)            180.             -DE/DX =    0.               !
 ! D10   D(2,4,6,7)              0.             -DE/DX =    0.               !
 ! D11   D(3,4,6,5)              0.             -DE/DX =    0.               !
 ! D12   D(3,4,6,7)            180.             -DE/DX =    0.               !
 ! D13   D(4,6,7,9)              0.             -DE/DX =    0.               !
 ! D14   D(5,6,7,9)            180.             -DE/DX =    0.               !
 ! D15   D(6,7,9,2)              0.             -DE/DX =    0.               !
 ! D16   D(6,7,9,8)            180.             -DE/DX =    0.               !
 -----------------------------------------------------------------------------
 GradGradGradGradGradGradGradGradGradGradGradGradGradGradGradGradGradGrad

 1\1\GINC-QUANTUM\Freq\RHF\6-31+G(d,p)\C3H4N2\RDJ3\03-Apr-2000\0\\#N GE
 OM=ALLCHECK GUESS=TCHECK RHF/6-31+G(D,P) FREQ\\1H pyrazole C3H4N2 casn
 o=288131\\0,1\H,-1.8736563988,0.,-1.1594682236\C,-0.9275048049,0.,-0.6
 592625692\H,0.6663377556,0.,-2.1611271444\C,0.3504911156,0.,-1.1393676
 891\H,2.2197236183,0.,0.0991046982\C,1.1511425866,0.,0.0266740175\N,0.
 4234170626,0.,1.1081059364\H,-1.5745576779,0.,1.3407389228\N,-0.835220
 017,0.,0.6793925194\\Version=IBM-RS6000-G98RevA.6\State=1-A'\HF=-224.8
 114244\RMSD=1.602e-09\RMSF=1.244e-04\Dipole=-0.8257046,0.,-0.5272878\D
 ipoleDeriv=-0.0056035,0.,-0.0454794,0.,0.2072242,0.,-0.0377318,0.,0.07
 91327,0.2850318,0.,-0.1940585,0.,-0.0760638,0.,-0.4170045,0.,0.3317441
 ,0.0925667,0.,0.0271094,0.,0.2189223,0.,0.0346495,0.,-0.034627,-0.4146
 579,0.,0.0026158,0.,-0.3076791,0.,-0.0598666,0.,-0.0446728,-0.0566202,
 0.,-0.0099663,0.,0.1630284,0.,-0.0340053,0.,0.0765184,0.301133,0.,0.13
 3648,0.,-0.0558522,0.,0.2914998,0.,0.305734,0.0376909,0.,-0.2685153,0.
 ,-0.2560241,0.,-0.1284921,0.,-0.6806813,0.2427617,0.,-0.0717274,0.,0.3
 483373,0.,-0.0539463,0.,0.251411,-0.4823025,0.,0.4263736,0.,-0.241893,
 0.,0.4048973,0.,-0.2845591\Polar=50.5387729,0.,29.9659548,-0.8248925,0
 .,48.1843111\PolarDeriv=-7.5209936,0.,-0.1213197,-3.0177217,0.,-1.9036
 565,0.,0.1516564,0.,0.,0.0300131,0.,-2.918181,0.,-0.2753708,-2.4289587
 ,0.,-2.2755018,-3.4465053,0.,-6.4831672,-3.4115025,0.,-5.2686847,0.,-4
 .6762131,0.,0.,-1.5772666,0.,-1.3949588,0.,0.3969924,3.0454821,0.,1.92
 42946,1.4020469,0.,-0.009794,-1.6819729,0.,1.935544,0.,-0.3648546,0.,0
 .,0.134344,0.,-1.3364401,0.,-0.1040031,2.1683414,0.,-8.6170583,3.09463
 39,0.,3.5652254,6.2880273,0.,5.4499038,0.,2.5206234,0.,0.,-3.5220957,0
 .,-2.6826723,0.,-4.6462535,2.9150613,0.,0.7156933,10.1241344,0.,0.2441
 286,0.5024704,0.,0.689796,0.,0.4910797,0.,0.,0.2366912,0.,0.4086758,0.
 ,-0.0866904,1.2957472,0.,-0.0272164,0.7695394,0.,4.8196901,-1.644002,0
 .,3.1215645,0.,3.4195734,0.,0.,-0.5821939,0.,0.442373,0.,0.4764048,-7.
 5108509,0.,-7.6718686,0.9318321,0.,-2.3855648,-1.7870131,0.,-2.2187024
 ,0.,-0.2963481,0.,0.,3.0668629,0.,1.9836836,0.,2.2652683,5.2665396,0.,
 13.694115,-4.9839634,0.,-0.5564202,2.9768451,0.,-2.7962764,0.,-0.34083
 4,0.,0.,0.0042455,0.,2.9261338,0.,0.4728521,-2.7942416,0.,4.025839,-0.
 3707244,0.,0.9272218,1.7748694,0.,0.9905117,0.,-0.9046832,0.,0.,2.2093
 995,0.,2.5713858,0.,1.5008002,-1.9571204,0.,-1.7682967\HyperPolar=-15.
 07058,0.,13.2239928,0.,2.5708462,0.,-58.8983897,18.3574775,0.,-20.3601
 778\PG=CS [SG(C3H4N2)]\NImag=0\\0.33560064,0.,0.02797059,0.14655883,0.
 ,0.13924065,-0.33135006,0.,-0.12357947,0.98313622,0.,-0.03917171,0.,0.
 ,0.15815835,-0.13468122,0.,-0.13895151,0.11242859,0.,0.73834721,0.0003
 4530,0.,-0.00106966,0.00366341,0.,0.03007032,0.08788958,0.,-0.00369947
 ,0.,0.,-0.00056166,0.,0.,0.02626275,0.00068531,0.,-0.00023870,-0.00272
 353,0.,0.00030730,-0.10159704,0.,0.38276154,-0.00786222,0.,0.00978607,
 -0.39861885,0.,0.07070777,-0.09871155,0.,0.09320909,0.70309601,0.,0.00
 470859,0.,0.,-0.08064625,0.,0.,-0.03292118,0.,0.,0.14169357,-0.0174316
 8,0.,0.01589234,0.11481527,0.,-0.17492898,0.09082721,0.,-0.36941629,-0
 .14732278,0.,0.92897136,-0.00022709,0.,0.00030156,-0.00094741,0.,-0.00
 140955,-0.00023895,0.,-0.00067554,-0.00463942,0.,0.00388982,0.40959627
 ,0.,0.00064558,0.,0.,0.00499227,0.,0.,-0.00196296,0.,0.,0.00288076,0.,
 0.,0.03132054,-0.00120421,0.,0.00123185,-0.00387088,0.,-0.00694909,0.0
 0111189,0.,0.00004725,-0.02433789,0.,0.00933952,0.02268667,0.,0.066065
 99,-0.00541309,0.,0.00523082,-0.05944919,0.,-0.00108754,0.01666521,0.,
 0.01358245,-0.20428755,0.,-0.10471947,-0.38753732,0.,-0.03684825,1.012
 67664,0.,0.00650495,0.,0.,0.01292007,0.,0.,-0.00235396,0.,0.,-0.080679
 47,0.,0.,-0.04216690,0.,0.,0.17562990,0.00150553,0.,-0.00166454,-0.083
 30283,0.,0.05919114,-0.01683047,0.,-0.00936869,-0.05739840,0.,-0.24962
 110,-0.02614998,0.,-0.07456869,-0.04962179,0.,0.70987341,0.00088683,0.
 ,0.00176549,-0.06953634,0.,-0.04968424,-0.00252314,0.,-0.00159704,0.04
 399309,0.,0.05119622,-0.01541044,0.,0.03369508,-0.23079161,0.,0.169704
 37,0.59776469,0.,0.00711941,0.,0.,0.01875543,0.,0.,0.00653324,0.,0.,0.
 02634807,0.,0.,-0.00765689,0.,0.,-0.08694169,0.,0.,0.12247338,0.002399
 52,0.,-0.00663872,-0.01992906,0.,-0.08578659,-0.00739398,0.,-0.0048643
 2,-0.04401643,0.,-0.08834160,-0.00167327,0.,0.00910087,0.14946998,0.,-
 0.39018269,-0.07082971,0.,0.69568860,-0.00029342,0.,0.00055040,0.01285
 138,0.,-0.00360747,0.00087144,0.,-0.00009691,0.00353699,0.,-0.00376823
 ,-0.00053202,0.,0.00157579,-0.00820637,0.,-0.00739855,-0.02100051,0.,0
 .03036775,0.34086208,0.,-0.00208631,0.,0.,-0.00816414,0.,0.,0.00249105
 ,0.,0.,0.00384083,0.,0.,0.00219805,0.,0.,0.00491028,0.,0.,-0.01351144,
 0.,0.,0.01445277,-0.00092181,0.,0.00016565,0.02930276,0.,-0.00484656,0
 .00134315,0.,0.00016278,-0.00294773,0.,-0.00799767,-0.00061624,0.,0.00
 107338,-0.00731328,0.,0.00158036,-0.01156416,0.,0.01989423,-0.23404844
 ,0.,0.28823370,0.00831310,0.,-0.03954404,-0.13974915,0.,-0.02273665,-0
 .00796130,0.,-0.00078679,-0.03650651,0.,0.01251364,-0.00006362,0.,0.00
 719180,-0.13365672,0.,0.06949214,-0.30338256,0.,-0.03839481,-0.3280895
 7,0.,0.22676575,0.94109633,0.,-0.00199163,0.,0.,-0.06628235,0.,0.,0.00
 621220,0.,0.,0.01477510,0.,0.,0.00974955,0.,0.,0.01217683,0.,0.,-0.073
 11951,0.,0.,-0.00413109,0.,0.,0.10261090,0.00308972,0.,-0.00903702,-0.
 02314083,0.,-0.38638292,0.00353859,0.,0.00060913,0.10232030,0.,-0.0638
 9758,0.00364653,0.,-0.00534107,0.03130709,0.,-0.04523921,-0.12268601,0
 .,-0.14886978,0.21642565,0.,-0.29826586,-0.21450104,0.,0.95642432\\-0.
 00001140,0.,-0.00000017,0.00032608,0.,-0.00019895,0.00000420,0.,-0.000
 08608,-0.00001456,0.,-0.00013054,-0.00000277,0.,-0.00002721,-0.0002941
 7,0.,-0.00005242,-0.00004289,0.,0.00015992,-0.00001600,0.,-0.00002042,
 0.00005151,0.,0.00035587\\\@

 EDUCATION IS NOT TRAINING BUT RATHER THE PROCESS THAT EQUIPS YOU TO
 ENTERTAIN YOURSELF, A FRIEND, OR AN IDEA.  -- WALLACE STERLING
 Job cpu time:  0 days  0 hours 11 minutes 34.5 seconds.
 File lengths (MBytes):  RWF=   21 Int=    0 D2E=    0 Chk=    3 Scr=    1
 Normal termination of Gaussian 98.
