 Gaussian 98, Revision A.6,
 Gaussian 98:  IBM-RS6000-G98RevA.6 19-Oct-1998

 --------------------
 #HF/cc-pVDZ opt freq
 --------------------

 -------------------------------
 1H pyrazole C3H4N2 casno=288131
 -------------------------------
 Symbolic Z-matrix:
 Charge =  0 Multiplicity = 1

 SCF Done:  E(RHF) =  -224.757283144     A.U. after   14 cycles
 SCF Done:  E(RHF) =  -224.808110363     A.U. after   13 cycles
 SCF Done:  E(RHF) =  -224.815480894     A.U. after   13 cycles
 SCF Done:  E(RHF) =  -224.815681635     A.U. after   11 cycles
 SCF Done:  E(RHF) =  -224.815755035     A.U. after   10 cycles
 SCF Done:  E(RHF) =  -224.815759358     A.U. after    9 cycles
 Optimization completed.
    -- Stationary point found.
 Normal termination of Gaussian 98.

 ----------------------------------------------
 #N Geom=AllCheck Guess=TCheck RHF/CC-pVDZ Freq
 ----------------------------------------------

 1H pyrazole C3H4N2 casno=288131
 -------------------------------
 Redundant internal coordinates taken from checkpointfile:
 /wrk/rdj3/Gau-38386.chk
 Charge =  0 Multiplicity = 1

                         Standard orientation:
 ---------------------------------------------------------------------
 Center     Atomic     Atomic              Coordinates (Angstroms)
 Number     Number      Type              X           Y           Z
 ---------------------------------------------------------------------
    1          1             0        2.088630    0.723822    0.000000
    2          6             0        1.097766    0.301636    0.000000
    3          1             0        1.258633   -1.889720    0.000000
    4          6             0        0.662411   -0.993792    0.000000
    5          1             0       -1.486984   -1.659733    0.000000
    6          6             0       -0.749023   -0.873564    0.000000
    7          7             0       -1.126571    0.374374    0.000000
    8          1             0       -0.041203    2.070555    0.000000
    9          7             0        0.000000    1.075539    0.000000
 ---------------------------------------------------------------------

 SCF Done:  E(RHF) =  -224.815759358     A.U. after    1 cycles

  The electronic state is 1-A'.
 Alpha  occ. eigenvalues --  -15.63597 -15.57942 -11.27532 -11.24847 -11.21963
 Alpha  occ. eigenvalues --   -1.38784  -1.10296  -1.05228  -0.82165  -0.80371
 Alpha  occ. eigenvalues --   -0.74179  -0.61095  -0.61092  -0.58962  -0.55831
 Alpha  occ. eigenvalues --   -0.45186  -0.36202  -0.34407
 Alpha virt. eigenvalues --    0.17928   0.18107   0.22269   0.23001   0.23893
 Alpha virt. eigenvalues --    0.24816   0.38938   0.39973   0.42265   0.51327
 Alpha virt. eigenvalues --    0.60228   0.63615   0.68508   0.68814   0.72836

  Exact polarizability:  43.948   2.087  47.419   0.000   0.000  19.179
 Approx polarizability:  43.370   0.967  46.669   0.000   0.000  21.533

                     1                      2                      3
                    A"                     A"                     A"
 Frequencies --   556.7028               686.2497               747.8776
 Red. masses --     1.6208                 2.3356                 2.9518
 Frc consts  --     0.2960                 0.6481                 0.9728
 IR Inten    --    75.1270                 0.3260                21.7821
 Raman Activ --     1.4917                 0.1615                 0.2032

                     4                      5                      6
                    A"                     A"                     A'
 Frequencies --   842.9840               973.7098               994.5335
 Red. masses --     1.1902                 1.2750                 5.5316
 Frc consts  --     0.4983                 0.7122                 3.2236
 IR Inten    --    89.3647                 2.2181                14.1891
 Raman Activ --     0.4661                 0.1870                 4.0482

                     7                      8                      9
                    A'                     A"                     A'
 Frequencies --  1011.0901              1013.2306              1114.1068
 Red. masses --     3.6060                 1.3907                 1.5651
 Frc consts  --     2.1720                 0.8412                 1.1446
 IR Inten    --     6.0727                 3.9338                 1.4016
 Raman Activ --     1.4250                 1.2853                 1.0446

                    10                     11                     12
                    A'                     A'                     A'
 Frequencies --  1132.6835              1221.2988              1279.5423
 Red. masses --     1.5845                 1.8446                 2.8587
 Frc consts  --     1.1977                 1.6211                 2.7575
 IR Inten    --    55.6017                24.9436                 3.4987
 Raman Activ --     1.5698                 7.0663                20.1886

                    13                     14                     15
                    A'                     A'                     A'
 Frequencies --  1388.1181              1530.0100              1546.0076
 Red. masses --     1.5725                 2.5182                 4.4483
 Frc consts  --     1.7852                 3.4732                 6.2643
 IR Inten    --     3.9559                 1.1276                33.8605
 Raman Activ --     8.9936                 2.1965                41.5818

                    16                     17                     18
                    A'                     A'                     A'
 Frequencies --  1628.0661              1734.3043              3404.1532
 Red. masses --     2.6359                 3.3154                 1.0945
 Frc consts  --     4.1164                 5.8754                 7.4730
 IR Inten    --    10.7612                 9.3916                 6.6815
 Raman Activ --     2.7052                 1.2468                97.4005

                    19                     20                     21
                    A'                     A'                     A'
 Frequencies --  3418.8546              3439.6131              3908.6007
 Red. masses --     1.0960                 1.1103                 1.0836
 Frc consts  --     7.5481                 7.7397                 9.7535
 IR Inten    --     3.8744                 0.6751               121.5965
 Raman Activ --    30.2784               124.1445                82.9272

 - Thermochemistry -
 -------------------
 Temperature   298.150 Kelvin.  Pressure   1.00000 Atm.
 Atom  1 has atomic number  1 and mass   1.00783

 Molecular mass:    68.03745 amu.
 Principal axes and moments of inertia in atomic units:
                           1         2         3
     EIGENVALUES --   183.22215 187.75346 370.97561
           X            0.93059   0.36606   0.00000
           Y           -0.36606   0.93059   0.00000
           Z            0.00000   0.00000   1.00000
 THIS MOLECULE IS AN ASYMMETRIC TOP.
 ROTATIONAL SYMMETRY NUMBER  1.
 ROTATIONAL TEMPERATURES (KELVIN)      0.47272     0.46131     0.23347
 ROTATIONAL CONSTANTS (GHZ)            9.85002     9.61229     4.86485
 Zero-point vibrational energy     200803.6 (Joules/Mol)
                                   47.99321 (Kcal/Mol)
 WARNING-- EXPLICIT CONSIDERATION OF   1 DEGREES OF FREEDOM AS
           VIBRATIONS MAY CAUSE SIGNIFICANT ERROR
 VIBRATIONAL TEMPERATURES:    800.97   987.35  1076.02  1212.86  1400.94
          (KELVIN)           1430.90  1454.72  1457.80  1602.94  1629.67
                             1757.17  1840.97  1997.18  2201.33  2224.35
                             2342.41  2495.26  4897.79  4918.94  4948.81
                             5623.57

 Zero-point correction=                           0.076482 (Hartree/Particle)
 Thermal correction to Energy=                    0.080023
 Thermal correction to Enthalpy=                  0.080967
 Thermal correction to Gibbs Free Energy=         0.050310
 Sum of electronic and zero-point Energies=           -224.739277
 Sum of electronic and thermal Energies=              -224.735737
 Sum of electronic and thermal Enthalpies=            -224.734792
 Sum of electronic and thermal Free Energies=         -224.765449

                     E (Thermal)             CV                S
                      KCAL/MOL        CAL/MOL-KELVIN    CAL/MOL-KELVIN
 TOTAL                   50.215             11.976             64.522
 ELECTRONIC               0.000              0.000              0.000
 TRANSLATIONAL            0.889              2.981             38.570
 ROTATIONAL               0.889              2.981             24.060
 VIBRATIONAL             48.438              6.014              1.891
 VIBRATION  1             0.912              1.125              0.530
                       Q            LOG10(Q)             LN(Q)
 TOTAL BOT       0.722693D-23        -23.141046        -53.284228
 TOTAL V=0       0.109149D+13         12.038018         27.718561
 VIB (BOT)       0.810151D-35        -35.091434        -80.801013
 VIB (BOT)  1    0.280082D+00         -0.552715         -1.272674
 VIB (V=0)       0.122357D+01          0.087631          0.201777
 VIB (V=0)  1    0.107310D+01          0.030641          0.070553
 ELECTRONIC      0.100000D+01          0.000000          0.000000
 TRANSLATIONAL   0.220588D+08          7.343582         16.909224
 ROTATIONAL      0.404394D+05          4.606805         10.607561
 ***** Axes restored to original set *****
 -------------------------------------------------------------------
 Center     Atomic                   Forces (Hartrees/Bohr)
 Number     Number              X              Y              Z
 -------------------------------------------------------------------
    1          1           0.000015817    0.000000000    0.000002316
    2          6          -0.000341061    0.000000000    0.000209570
    3          1          -0.000000774    0.000000000    0.000095970
    4          6           0.000038059    0.000000000    0.000114588
    5          1           0.000001851    0.000000000    0.000028210
    6          6           0.000318464    0.000000000    0.000031696
    7          7           0.000040688    0.000000000   -0.000164177
    8          1           0.000014845    0.000000000    0.000028642
    9          7          -0.000087890    0.000000000   -0.000346816
 -------------------------------------------------------------------
 Cartesian Forces:  Max     0.000346816 RMS     0.000128404

 GradGradGradGradGradGradGradGradGradGradGradGradGradGradGradGradGradGrad
 Berny optimization.
 Internal  Forces:  Max     0.000288580 RMS     0.000096068
 Search for a local minimum.
 Step number   1 out of a maximum of  48
 All quantities printed in internal units (Hartrees-Bohrs-Radians)
 Second derivative matrix not updated -- analytic derivatives used.
     Eigenvalues ---    0.00819   0.01431   0.02064   0.03389   0.06682
     Eigenvalues ---    0.07256   0.10645   0.11979   0.12692   0.13625
     Eigenvalues ---    0.25644   0.29303   0.39627   0.40746   0.41191
     Eigenvalues ---    0.41374   0.47419   0.48186   0.54245   0.58188
     Eigenvalues ---    0.682301000.000001000.000001000.000001000.00000
     Eigenvalues --- 1000.000001000.000001000.000001000.000001000.00000
     Eigenvalues --- 1000.000001000.000001000.000001000.000001000.00000
     Eigenvalues --- 1000.000001000.000001000.00000
 Angle between quadratic step and forces=  27.10 degrees.
 Linear search not attempted -- first point.
 Iteration  1 RMS(Cart)=  0.00026462 RMS(Int)=  0.00000005
 Iteration  2 RMS(Cart)=  0.00000005 RMS(Int)=  0.00000000
 Variable       Old X    -DE/DX   Delta X   Delta X   Delta X     New X
                                 (Linear)    (Quad)   (Total)
    R1        2.03534  -0.00002   0.00000  -0.00006  -0.00006   2.03528
    R2        2.58255   0.00021   0.00000   0.00037   0.00037   2.58292
    R3        2.53816  -0.00029   0.00000  -0.00051  -0.00051   2.53765
    R4        2.03369  -0.00009   0.00000  -0.00019  -0.00019   2.03350
    R5        2.67688   0.00002   0.00000  -0.00003  -0.00003   2.67686
    R6        2.03762   0.00000   0.00000  -0.00002  -0.00002   2.03759
    R7        2.46382  -0.00010   0.00000  -0.00003  -0.00003   2.46380
    R8        2.50757   0.00015   0.00000   0.00012   0.00012   2.50769
    R9        1.88192   0.00001   0.00000   0.00002   0.00002   1.88194
    A1        2.29779   0.00006   0.00000   0.00004   0.00004   2.29783
    A2        2.12475   0.00007   0.00000   0.00037   0.00037   2.12512
    A3        1.86064  -0.00013   0.00000  -0.00041  -0.00041   1.86024
    A4        2.23020  -0.00006   0.00000  -0.00009  -0.00009   2.23011
    A5        1.81003   0.00018   0.00000   0.00051   0.00051   1.81054
    A6        2.24295  -0.00012   0.00000  -0.00042  -0.00042   2.24253
    A7        2.23960   0.00015   0.00000   0.00055   0.00055   2.24014
    A8        1.94956  -0.00023   0.00000  -0.00060  -0.00060   1.94896
    A9        2.09403   0.00009   0.00000   0.00005   0.00005   2.09409
   A10        1.83373   0.00015   0.00000   0.00031   0.00031   1.83404
   A11        1.97081   0.00004   0.00000   0.00019   0.00019   1.97100
   A12        2.22624   0.00001   0.00000   0.00025   0.00025   2.22649
   A13        2.08613  -0.00005   0.00000  -0.00044  -0.00044   2.08569
    D1        0.00000   0.00000   0.00000   0.00000   0.00000   0.00000
    D2        3.14159   0.00000   0.00000   0.00000   0.00000   3.14159
    D3        3.14159   0.00000   0.00000   0.00000   0.00000   3.14159
    D4        0.00000   0.00000   0.00000   0.00000   0.00000   0.00000
    D5        3.14159   0.00000   0.00000   0.00000   0.00000   3.14159
    D6        0.00000   0.00000   0.00000   0.00000   0.00000   0.00000
    D7        0.00000   0.00000   0.00000   0.00000   0.00000   0.00000
    D8        3.14159   0.00000   0.00000   0.00000   0.00000   3.14159
    D9        3.14159   0.00000   0.00000   0.00000   0.00000   3.14159
   D10        0.00000   0.00000   0.00000   0.00000   0.00000   0.00000
   D11        0.00000   0.00000   0.00000   0.00000   0.00000   0.00000
   D12        3.14159   0.00000   0.00000   0.00000   0.00000   3.14159
   D13        0.00000   0.00000   0.00000   0.00000   0.00000   0.00000
   D14        3.14159   0.00000   0.00000   0.00000   0.00000   3.14159
   D15        0.00000   0.00000   0.00000   0.00000   0.00000   0.00000
   D16        3.14159   0.00000   0.00000   0.00000   0.00000   3.14159
         Item               Value     Threshold  Converged?
 Maximum Force            0.000289     0.000450     YES
 RMS     Force            0.000096     0.000300     YES
 Maximum Displacement     0.000659     0.001800     YES
 RMS     Displacement     0.000265     0.001200     YES
 Predicted change in Energy=-3.947667D-07
 Optimization completed.
    -- Stationary point found.
                         ----------------------------
                         !   Optimized Parameters   !
                         ! (Angstroms and Degrees)  !
 ------------------------                            -------------------------
 ! Name  Definition              Value          Derivative Info.             !
 -----------------------------------------------------------------------------
 ! R1    R(1,2)                  1.0771         -DE/DX =    0.               !
 ! R2    R(2,4)                  1.3666         -DE/DX =    0.0002           !
 ! R3    R(2,9)                  1.3431         -DE/DX =   -0.0003           !
 ! R4    R(3,4)                  1.0762         -DE/DX =   -0.0001           !
 ! R5    R(4,6)                  1.4165         -DE/DX =    0.               !
 ! R6    R(5,6)                  1.0783         -DE/DX =    0.               !
 ! R7    R(6,7)                  1.3038         -DE/DX =   -0.0001           !
 ! R8    R(7,9)                  1.3269         -DE/DX =    0.0001           !
 ! R9    R(8,9)                  0.9959         -DE/DX =    0.               !
 ! A1    A(1,2,4)              131.6538         -DE/DX =    0.0001           !
 ! A2    A(1,2,9)              121.7391         -DE/DX =    0.0001           !
 ! A3    A(4,2,9)              106.6071         -DE/DX =   -0.0001           !
 ! A4    A(2,4,3)              127.781          -DE/DX =   -0.0001           !
 ! A5    A(2,4,6)              103.7072         -DE/DX =    0.0002           !
 ! A6    A(3,4,6)              128.5118         -DE/DX =   -0.0001           !
 ! A7    A(4,6,5)              128.3195         -DE/DX =    0.0001           !
 ! A8    A(4,6,7)              111.7013         -DE/DX =   -0.0002           !
 ! A9    A(5,6,7)              119.9792         -DE/DX =    0.0001           !
 ! A10   A(6,7,9)              105.0651         -DE/DX =    0.0002           !
 ! A11   A(2,9,7)              112.9193         -DE/DX =    0.               !
 ! A12   A(2,9,8)              127.5543         -DE/DX =    0.               !
 ! A13   A(7,9,8)              119.5264         -DE/DX =    0.               !
 ! D1    D(1,2,4,3)              0.             -DE/DX =    0.               !
 ! D2    D(1,2,4,6)            180.             -DE/DX =    0.               !
 ! D3    D(9,2,4,3)            180.             -DE/DX =    0.               !
 ! D4    D(9,2,4,6)              0.             -DE/DX =    0.               !
 ! D5    D(1,2,9,7)            180.             -DE/DX =    0.               !
 ! D6    D(1,2,9,8)              0.             -DE/DX =    0.               !
 ! D7    D(4,2,9,7)              0.             -DE/DX =    0.               !
 ! D8    D(4,2,9,8)            180.             -DE/DX =    0.               !
 ! D9    D(2,4,6,5)            180.             -DE/DX =    0.               !
 ! D10   D(2,4,6,7)              0.             -DE/DX =    0.               !
 ! D11   D(3,4,6,5)              0.             -DE/DX =    0.               !
 ! D12   D(3,4,6,7)            180.             -DE/DX =    0.               !
 ! D13   D(4,6,7,9)              0.             -DE/DX =    0.               !
 ! D14   D(5,6,7,9)            180.             -DE/DX =    0.               !
 ! D15   D(6,7,9,2)              0.             -DE/DX =    0.               !
 ! D16   D(6,7,9,8)            180.             -DE/DX =    0.               !
 -----------------------------------------------------------------------------
 GradGradGradGradGradGradGradGradGradGradGradGradGradGradGradGradGradGrad

 1\1\GINC-QUANTUM\Freq\RHF\CC-pVDZ\C3H4N2\RDJ3\20-Mar-2000\0\\#N GEOM=A
 LLCHECK GUESS=TCHECK RHF/CC-PVDZ FREQ\\1H pyrazole C3H4N2 casno=288131
 \\0,1\H,-1.881575492,0.,-1.1601573447\C,-0.9279008892,0.,-0.6596024291
 \H,0.6678530082,0.,-2.1700619623\C,0.350901323,0.,-1.1416124947\H,2.22
 60697788,0.,0.1022196658\C,1.150381932,0.,0.0277599806\N,0.4224602351,
 0.,1.1094351583\H,-1.5778546618,0.,1.341368596\N,-0.8331440677,0.,0.68
 01877995\\Version=IBM-RS6000-G98RevA.6\State=1-A'\HF=-224.8157594\RMSD
 =2.063e-09\RMSF=1.284e-04\Dipole=-0.8083209,0.,-0.4367014\DipoleDeriv=
 -0.0091907,0.,-0.0485777,0.,0.1763379,0.,-0.0365878,0.,0.0859322,0.264
 9477,0.,-0.1307115,0.,-0.0303358,0.,-0.3818667,0.,0.3251002,0.0944798,
 0.,0.029475,0.,0.1795422,0.,0.0357444,0.,-0.0342758,-0.4070562,0.,-0.0
 176012,0.,-0.2894449,0.,-0.0627876,0.,0.0022788,-0.0616876,0.,-0.01230
 34,0.,0.1394548,0.,-0.0390772,0.,0.0803953,0.3205317,0.,0.167065,0.,-0
 .0188776,0.,0.2621268,0.,0.2402846,0.0304878,0.,-0.2928447,0.,-0.25465
 59,0.,-0.108975,0.,-0.6861669,0.2389718,0.,-0.0744356,0.,0.3248891,0.,
 -0.0611279,0.,0.2461674,-0.4714843,0.,0.3799341,0.,-0.2269098,0.,0.392
 5509,0.,-0.2597158\Polar=48.0752454,0.,19.1790582,-1.2824502,0.,43.291
 8307\PolarDeriv=-7.5691907,0.,-0.162119,-2.990716,0.,-1.8073224,0.,-0.
 6444051,0.,0.,-0.5402843,0.,-2.8139518,0.,-0.2590826,-2.4656882,0.,-2.
 2647387,-2.3820452,0.,-1.0758988,-2.300555,0.,-3.772417,0.,-4.7085519,
 0.,0.,-0.6529773,0.,-1.1266615,0.,-0.0963386,2.8311598,0.,0.4266703,1.
 4406388,0.,0.0551001,-1.7765108,0.,1.7612208,0.,-0.0163022,0.,0.,-1.02
 69825,0.,-1.2038448,0.,-0.2749091,2.2145766,0.,-8.6897979,2.468354,0.,
 0.2820759,5.2559939,0.,3.8037374,0.,2.8268904,0.,0.,-3.2536656,0.,-2.2
 528214,0.,-0.3753227,2.1077098,0.,1.2230754,10.2457371,0.,0.3345216,0.
 7599973,0.,0.767102,0.,1.2755845,0.,0.,0.2938448,0.,0.5104707,0.,-0.08
 24217,1.4102698,0.,0.0702156,-0.544772,0.,0.5698635,-1.7297343,0.,1.53
 5895,0.,2.9293988,0.,0.,-0.3582243,0.,0.5946139,0.,0.3892727,-5.918667
 6,0.,-6.5105038,1.8136551,0.,-0.3624412,-1.7430466,0.,-1.5408307,0.,0.
 379338,0.,0.,3.5190955,0.,1.9965396,0.,0.4042661,4.5342704,0.,12.98412
 96,-4.9329504,0.,-0.036805,3.2634035,0.,-2.7644489,0.,-0.8830305,0.,0.
 ,0.6982057,0.,2.6913106,0.,0.1711543,-3.0886129,0.,4.302235,-0.5394267
 ,0.,0.395703,1.2611679,0.,2.0170639,0.,-1.158922,0.,0.,1.3209879,0.,1.
 6043446,0.,0.1233817,-1.6250178,0.,-1.5412855\HyperPolar=-15.8311764,0
 .,0.2249014,0.,6.8933841,0.,-7.5010291,-1.3476596,0.,-54.7696438\PG=CS
  [SG(C3H4N2)]\NImag=0\\0.33421560,0.,0.02742863,0.14571512,0.,0.136141
 43,-0.33093467,0.,-0.12291810,0.98747831,0.,-0.03790947,0.,0.,0.156399
 13,-0.13423919,0.,-0.13656283,0.10849934,0.,0.74025089,0.00046276,0.,-
 0.00111900,0.00435969,0.,0.02908668,0.08532470,0.,-0.00360674,0.,0.,-0
 .00114156,0.,0.,0.02573858,0.00062504,0.,-0.00015327,-0.00394245,0.,0.
 00024208,-0.10129909,0.,0.38031313,-0.00648515,0.,0.00960960,-0.404500
 03,0.,0.07500866,-0.09664707,0.,0.09323338,0.70454540,0.,0.00436303,0.
 ,0.,-0.08006815,0.,0.,-0.03153750,0.,0.,0.13923326,-0.01785137,0.,0.01
 520448,0.12103088,0.,-0.17315921,0.09074176,0.,-0.36814183,-0.14889886
 ,0.,0.92967857,-0.00027761,0.,0.00033224,-0.00094993,0.,-0.00173462,-0
 .00010964,0.,-0.00056719,-0.00456609,0.,0.00497016,0.40602012,0.,0.000
 68503,0.,0.,0.00489558,0.,0.,-0.00191233,0.,0.,0.00271410,0.,0.,0.0308
 9865,-0.00122467,0.,0.00122481,-0.00369711,0.,-0.00696796,0.00119590,0
 .,0.00021772,-0.02361387,0.,0.00940989,0.02332090,0.,0.06412860,-0.005
 36460,0.,0.00506261,-0.06148701,0.,0.00095744,0.01611542,0.,0.01448403
 ,-0.20145500,0.,-0.10930096,-0.38481374,0.,-0.03744143,1.01132681,0.,0
 .00622037,0.,0.,0.01367125,0.,0.,-0.00294298,0.,0.,-0.08038958,0.,0.,-
 0.04131280,0.,0.,0.17534761,0.00172793,0.,-0.00163464,-0.08616776,0.,0
 .05910236,-0.01604080,0.,-0.00814845,-0.06038524,0.,-0.25257128,-0.026
 83198,0.,-0.07306527,-0.04966659,0.,0.71728625,0.00121131,0.,0.0018315
 1,-0.07135090,0.,-0.05030781,-0.00238015,0.,-0.00180155,0.04347660,0.,
 0.05284309,-0.01488369,0.,0.03257550,-0.22937755,0.,0.17262767,0.60121
 608,0.,0.00747963,0.,0.,0.01855004,0.,0.,0.00676164,0.,0.,0.02638971,0
 .,0.,-0.00791572,0.,0.,-0.08804010,0.,0.,0.12456647,0.00224393,0.,-0.0
 0671706,-0.01865126,0.,-0.08622161,-0.00740776,0.,-0.00513149,-0.04441
 641,0.,-0.08775181,-0.00266290,0.,0.00916187,0.15368270,0.,-0.39664431
 ,-0.07105400,0.,0.70325892,-0.00019349,0.,0.00044076,0.01198082,0.,-0.
 00380957,0.00086116,0.,-0.00010575,0.00373400,0.,-0.00345824,-0.000511
 20,0.,0.00155926,-0.00781759,0.,-0.00757413,-0.02007055,0.,0.02969524,
 0.33704777,0.,-0.00212002,0.,0.,-0.00857688,0.,0.,0.00266294,0.,0.,0.0
 0340646,0.,0.,0.00242199,0.,0.,0.00487096,0.,0.,-0.01426292,0.,0.,0.01
 374524,-0.00082301,0.,0.00036720,0.02920782,0.,-0.00342112,0.00136932,
 0.,0.00014528,-0.00322349,0.,-0.00784991,-0.00063318,0.,0.00110679,-0.
 00735555,0.,0.00161102,-0.01121202,0.,0.01963301,-0.23098229,0.,0.2821
 5003,0.00736585,0.,-0.03895474,-0.13459628,0.,-0.02346094,-0.00798687,
 0.,-0.00062641,-0.03810267,0.,0.00992354,0.00009177,0.,0.00732552,-0.1
 3712675,0.,0.07231092,-0.30784116,0.,-0.04142954,-0.32503092,0.,0.2236
 5239,0.94322701,0.,-0.00254044,0.,0.,-0.06581992,0.,0.,0.00597796,0.,0
 .,0.01588867,0.,0.,0.00952548,0.,0.,0.01257528,0.,0.,-0.07352875,0.,0.
 ,-0.00214777,0.,0.,0.10006949,0.00382623,0.,-0.00787012,-0.02336135,0.
 ,-0.39326262,0.00347298,0.,0.00065684,0.10268624,0.,-0.06481890,0.0038
 0657,0.,-0.00521644,0.02957775,0.,-0.04593569,-0.12550239,0.,-0.149587
 52,0.21423472,0.,-0.29374229,-0.20874074,0.,0.95977673\\-0.00001582,0.
 ,-0.00000232,0.00034106,0.,-0.00020957,0.00000077,0.,-0.00009597,-0.00
 003806,0.,-0.00011459,-0.00000185,0.,-0.00002821,-0.00031846,0.,-0.000
 03170,-0.00004069,0.,0.00016418,-0.00001485,0.,-0.00002864,0.00008789,
 0.,0.00034682\\\@

            THE IRISH PIG
 'TWAS AN EVENING IN NOVEMBER,
 AS I VERY WELL REMEMBER
 I WAS STROLLING DOWN THE STREET IN DRUNKEN PRIDE,
 BUT MY KNEES WERE ALL A'FLUTTER
 SO I LANDED IN THE GUTTER,
 AND A PIG CAME UP AND LAY DOWN BY MY SIDE.

 YES, I LAY THERE IN THE GUTTER
 THINKING THOUGHTS I COULD NOT UTTER
 WHEN A COLLEEN PASSING BY DID SOFTLY SAY,
 'YE CAN TELL A MAN THAT BOOZES
 BY THE COMPANY THAT HE CHOOSES.' -
 AT THAT, THE PIG GOT UP AND WALKED AWAY!
     -- THE ECONOMIST, AUGUST 23, 1986
 Job cpu time:  0 days  0 hours  9 minutes  9.2 seconds.
 File lengths (MBytes):  RWF=   14 Int=    0 D2E=    0 Chk=    3 Scr=    1
 Normal termination of Gaussian 98.
