 Gaussian 98, Revision A.6,
 Gaussian 98:  IBM-RS6000-G98RevA.6 19-Oct-1998

 ------------
 #MP2/cc-pVDZ
 ------------

 -------------------------------
 1H pyrazole C3H4N2 casno=288131
 -------------------------------
 Symbolic Z-matrix:
 Charge =  0 Multiplicity = 1

                         Standard orientation:
 ---------------------------------------------------------------------
 Center     Atomic     Atomic              Coordinates (Angstroms)
 Number     Number      Type              X           Y           Z
 ---------------------------------------------------------------------
    1          1             0        1.974407    0.585689    0.000000
    2          6             0        1.028833    0.295936    0.000000
    3          1             0        1.140941   -1.775099    0.000000
    4          6             0        0.595873   -0.950271    0.000000
    5          1             0       -1.344123   -1.627388    0.000000
    6          6             0       -0.712074   -0.864589    0.000000
    7          7             0       -1.039336    0.372682    0.000000
    8          1             0        0.028336    1.984773    0.000000
    9          7             0        0.000000    1.048113    0.000000
 ---------------------------------------------------------------------

 SCF Done:  E(RHF) =  -224.757283144     A.U. after   14 cycles
 E2 =    -0.7024942447D+00 EUMP2 =    -0.22545977738922D+03

  The electronic state is 1-A'.
 Alpha  occ. eigenvalues --  -15.63564 -15.55726 -11.23688 -11.21397 -11.18105
 Alpha  occ. eigenvalues --   -1.45478  -1.12905  -1.08311  -0.86577  -0.83306
 Alpha  occ. eigenvalues --   -0.77229  -0.65191  -0.64999  -0.60815  -0.56586
 Alpha  occ. eigenvalues --   -0.43828  -0.37398  -0.34155
 Alpha virt. eigenvalues --    0.18566   0.20556   0.22625   0.23661   0.26389
 Alpha virt. eigenvalues --    0.26515   0.40925   0.42585   0.45171   0.50254
 Alpha virt. eigenvalues --    0.64518   0.67054   0.68102   0.73252   0.74496

 Normal termination of Gaussian 98.
