 Gaussian 98, Revision A.6,
 Gaussian 98:  IBM-RS6000-G98RevA.6 19-Oct-1998

 --------------------
 #MP2/6-311+G(3df,2p)
 --------------------

 -------------------------------
 1H pyrazole C3H4N2 casno=288131
 -------------------------------
 Symbolic Z-matrix:
 Charge =  0 Multiplicity = 1

                         Standard orientation:
 ---------------------------------------------------------------------
 Center     Atomic     Atomic              Coordinates (Angstroms)
 Number     Number      Type              X           Y           Z
 ---------------------------------------------------------------------
    1          1             0        1.974407    0.585689    0.000000
    2          6             0        1.028833    0.295936    0.000000
    3          1             0        1.140941   -1.775099    0.000000
    4          6             0        0.595873   -0.950271    0.000000
    5          1             0       -1.344123   -1.627388    0.000000
    6          6             0       -0.712074   -0.864589    0.000000
    7          7             0       -1.039336    0.372682    0.000000
    8          1             0        0.028336    1.984773    0.000000
    9          7             0        0.000000    1.048113    0.000000
 ---------------------------------------------------------------------

 SCF Done:  E(RHF) =  -224.824620695     A.U. after   14 cycles
 E2 =    -0.8698249051D+00 EUMP2 =    -0.22569444559976D+03

  The electronic state is 1-A'.
 Alpha  occ. eigenvalues --  -15.63422 -15.56013 -11.23305 -11.21092 -11.17761
 Alpha  occ. eigenvalues --   -1.45772  -1.13255  -1.08671  -0.87037  -0.83823
 Alpha  occ. eigenvalues --   -0.77786  -0.65807  -0.65633  -0.61459  -0.57245
 Alpha  occ. eigenvalues --   -0.44516  -0.37976  -0.34826
 Alpha virt. eigenvalues --    0.05586   0.07470   0.08482   0.10654   0.11105
 Alpha virt. eigenvalues --    0.11375   0.13084   0.14939   0.14965   0.16833
 Alpha virt. eigenvalues --    0.17920   0.19674   0.19784   0.21290   0.23265

 Normal termination of Gaussian 98.
