 Gaussian 98, Revision A.6,
 Gaussian 98:  IBM-RS6000-G98RevA.6 19-Oct-1998

 --------------------------
 #MPW1PW91/cc-pVDZ opt freq
 --------------------------

 -------------------------------
 1H pyrazole C3H4N2 casno=288131
 -------------------------------
 Symbolic Z-matrix:
 Charge =  0 Multiplicity = 1

 SCF Done:  E(RmPW+HF-PW91) =  -226.096459035     A.U. after   15 cycles
 SCF Done:  E(RmPW+HF-PW91) =  -226.153378782     A.U. after   13 cycles
 SCF Done:  E(RmPW+HF-PW91) =  -226.164534813     A.U. after   12 cycles
 SCF Done:  E(RmPW+HF-PW91) =  -226.164661750     A.U. after   10 cycles
 SCF Done:  E(RmPW+HF-PW91) =  -226.164700201     A.U. after   10 cycles
 SCF Done:  E(RmPW+HF-PW91) =  -226.164702302     A.U. after    8 cycles
 Optimization completed.
    -- Stationary point found.
 Normal termination of Gaussian 98.

 ----------------------------------------------------
 #N Geom=AllCheck Guess=TCheck RmPW1PW91/CC-pVDZ Freq
 ----------------------------------------------------

 1H pyrazole C3H4N2 casno=288131
 -------------------------------
 Redundant internal coordinates taken from checkpointfile:
 /wrk/rdj3/Gau-17442.chk
 Charge =  0 Multiplicity = 1

                         Standard orientation:
 ---------------------------------------------------------------------
 Center     Atomic     Atomic              Coordinates (Angstroms)
 Number     Number      Type              X           Y           Z
 ---------------------------------------------------------------------
    1          1             0        2.106974    0.730183    0.000000
    2          6             0        1.109072    0.303681    0.000000
    3          1             0        1.262706   -1.903652    0.000000
    4          6             0        0.660527   -1.001608    0.000000
    5          1             0       -1.491911   -1.675118    0.000000
    6          6             0       -0.746151   -0.884533    0.000000
    7          7             0       -1.139767    0.384731    0.000000
    8          1             0       -0.040088    2.088738    0.000000
    9          7             0        0.000000    1.080214    0.000000
 ---------------------------------------------------------------------

 SCF Done:  E(RmPW+HF-PW91) =  -226.164702302     A.U. after    1 cycles

  The electronic state is 1-A'.
 Alpha  occ. eigenvalues --  -14.48113 -14.41733 -10.28211 -10.25866 -10.23956
 Alpha  occ. eigenvalues --   -1.07917  -0.84033  -0.80271  -0.62747  -0.61248
 Alpha  occ. eigenvalues --   -0.55962  -0.45607  -0.45488  -0.43887  -0.40807
 Alpha  occ. eigenvalues --   -0.30125  -0.26913  -0.25898
 Alpha virt. eigenvalues --    0.02734   0.06579   0.07701   0.11110   0.12434
 Alpha virt. eigenvalues --    0.14082   0.22544   0.23197   0.27740   0.35242
 Alpha virt. eigenvalues --    0.41117   0.43723   0.48086   0.49612   0.50749

  Exact polarizability:  47.403   2.267  49.064   0.000   0.012  19.456
 Approx polarizability:  75.249   1.335  77.460   0.000   0.000  28.462

                     1                      2                      3
                    A"                     A"                     A"
 Frequencies --   551.7191               643.8565               704.3159
 Red. masses --     1.7598                 2.4766                 2.7190
 Frc consts  --     0.3156                 0.6049                 0.7947
 IR Inten    --    49.2504                 0.0876                23.1231
 Raman Activ --     0.0000                 0.0000                 0.0000

                     4                      5                      6
                    A"                     A"                     A"
 Frequencies --   761.9790               851.2390               904.4577
 Red. masses --     1.2111                 1.2255                 1.3402
 Frc consts  --     0.4143                 0.5232                 0.6460
 IR Inten    --    76.7487                 8.4430                 3.9806
 Raman Activ --     0.0000                 0.0000                 0.0000

                     7                      8                      9
                    A'                     A'                     A'
 Frequencies --   921.1686               940.1988              1055.2702
 Red. masses --     5.3718                 3.2432                 1.4348
 Frc consts  --     2.6857                 1.6891                 0.9414
 IR Inten    --     9.4932                 4.3534                 8.8736
 Raman Activ --     0.0000                 0.0000                 0.0000

                    10                     11                     12
                    A'                     A'                     A'
 Frequencies --  1064.9060              1159.2429              1215.0252
 Red. masses --     1.4518                 1.6304                 3.7602
 Frc consts  --     0.9700                 1.2909                 3.2707
 IR Inten    --    41.1977                14.9398                 3.1179
 Raman Activ --     0.0000                 0.0000                 0.0000

                    13                     14                     15
                    A'                     A'                     A'
 Frequencies --  1288.1916              1409.7844              1460.1457
 Red. masses --     1.5579                 3.1299                 4.9281
 Frc consts  --     1.5232                 3.6651                 6.1904
 IR Inten    --     4.5255                 1.3439                15.9592
 Raman Activ --     0.0000                 0.0000                 0.0000

                    16                     17                     18
                    A'                     A'                     A'
 Frequencies --  1513.1736              1590.9722              3274.5009
 Red. masses --     2.9268                 3.4538                 1.0935
 Frc consts  --     3.9484                 5.1508                 6.9083
 IR Inten    --     4.3786                 5.2685                 3.1240
 Raman Activ --     0.0000                 0.0000                 0.0000

                    19                     20                     21
                    A'                     A'                     A'
 Frequencies --  3290.5761              3310.7245              3691.3117
 Red. masses --     1.0943                 1.1092                 1.0827
 Frc consts  --     6.9813                 7.1634                 8.6919
 IR Inten    --     1.0470                 0.1928                89.1720
 Raman Activ --     0.0000                 0.0000                 0.0000

 - Thermochemistry -
 -------------------
 Temperature   298.150 Kelvin.  Pressure   1.00000 Atm.
 Atom  1 has atomic number  1 and mass   1.00783

 Molecular mass:    68.03745 amu.
 Principal axes and moments of inertia in atomic units:
                           1         2         3
     EIGENVALUES --   185.99075 190.74641 376.73716
           X            0.89298   0.45010   0.00000
           Y           -0.45010   0.89298   0.00000
           Z            0.00000   0.00000   1.00000
 THIS MOLECULE IS AN ASYMMETRIC TOP.
 ROTATIONAL SYMMETRY NUMBER  1.
 ROTATIONAL TEMPERATURES (KELVIN)      0.46569     0.45408     0.22990
 ROTATIONAL CONSTANTS (GHZ)            9.70339     9.46147     4.79045
 Zero-point vibrational energy     189026.5 (Joules/Mol)
                                   45.17842 (Kcal/Mol)
 WARNING-- EXPLICIT CONSIDERATION OF   1 DEGREES OF FREEDOM AS
           VIBRATIONS MAY CAUSE SIGNIFICANT ERROR
 VIBRATIONAL TEMPERATURES:    793.80   926.36  1013.35  1096.31  1224.74
          (KELVIN)           1301.31  1325.35  1352.73  1518.29  1532.15
                             1667.88  1748.14  1853.41  2028.35  2100.81
                             2177.11  2289.04  4711.25  4734.38  4763.37
                             5310.94

 Zero-point correction=                           0.071996 (Hartree/Particle)
 Thermal correction to Energy=                    0.075697
 Thermal correction to Enthalpy=                  0.076641
 Thermal correction to Gibbs Free Energy=         0.045754
 Sum of electronic and zero-point Energies=           -226.092706
 Sum of electronic and thermal Energies=              -226.089006
 Sum of electronic and thermal Enthalpies=            -226.088061
 Sum of electronic and thermal Free Energies=         -226.118948

                     E (Thermal)             CV                S
                      KCAL/MOL        CAL/MOL-KELVIN    CAL/MOL-KELVIN
 TOTAL                   47.500             13.086             65.006
 ELECTRONIC               0.000              0.000              0.000
 TRANSLATIONAL            0.889              2.981             38.570
 ROTATIONAL               0.889              2.981             24.106
 VIBRATIONAL             45.723              7.125              2.330
 VIBRATION  1             0.907              1.136              0.541
                       Q            LOG10(Q)             LN(Q)
 TOTAL BOT       0.900853D-21        -21.045346        -48.458700
 TOTAL V=0       0.117617D+13         12.070471         27.793287
 VIB (BOT)       0.986800D-33        -33.005771        -75.998596
 VIB (BOT)  1    0.283975D+00         -0.546720         -1.258868
 VIB (V=0)       0.128839D+01          0.110046          0.253391
 VIB (V=0)  1    0.107501D+01          0.031414          0.072334
 ELECTRONIC      0.100000D+01          0.000000          0.000000
 TRANSLATIONAL   0.220588D+08          7.343582         16.909224
 ROTATIONAL      0.413850D+05          4.616842         10.630673
 ***** Axes restored to original set *****
 -------------------------------------------------------------------
 Center     Atomic                   Forces (Hartrees/Bohr)
 Number     Number              X              Y              Z
 -------------------------------------------------------------------
    1          1           0.000010584    0.000000000   -0.000084503
    2          6          -0.000254044    0.000000000    0.000364614
    3          1           0.000020245    0.000000000    0.000025393
    4          6           0.000073046    0.000000000   -0.000161269
    5          1           0.000029102    0.000000000    0.000027741
    6          6          -0.000189735    0.000000000    0.000251390
    7          7           0.000154024    0.000000000    0.000012187
    8          1           0.000061288    0.000000000    0.000046620
    9          7           0.000095490    0.000000000   -0.000482173
 -------------------------------------------------------------------
 Cartesian Forces:  Max     0.000482173 RMS     0.000150229

 GradGradGradGradGradGradGradGradGradGradGradGradGradGradGradGradGradGrad
 Berny optimization.
 Internal  Forces:  Max     0.000244162 RMS     0.000079708
 Search for a local minimum.
 Step number   1 out of a maximum of  48
 All quantities printed in internal units (Hartrees-Bohrs-Radians)
 Second derivative matrix not updated -- analytic derivatives used.
     Eigenvalues ---    0.00806   0.01188   0.01651   0.02833   0.05970
     Eigenvalues ---    0.06335   0.09105   0.10216   0.10912   0.11763
     Eigenvalues ---    0.22631   0.27233   0.36397   0.37637   0.38143
     Eigenvalues ---    0.38332   0.41787   0.44641   0.48397   0.51228
     Eigenvalues ---    0.591301000.000001000.000001000.000001000.00000
     Eigenvalues --- 1000.000001000.000001000.000001000.000001000.00000
     Eigenvalues --- 1000.000001000.000001000.000001000.000001000.00000
     Eigenvalues --- 1000.000001000.000001000.00000
 Angle between quadratic step and forces=  34.68 degrees.
 Linear search not attempted -- first point.
 Iteration  1 RMS(Cart)=  0.00028193 RMS(Int)=  0.00000010
 Iteration  2 RMS(Cart)=  0.00000010 RMS(Int)=  0.00000001
 Variable       Old X    -DE/DX   Delta X   Delta X   Delta X     New X
                                 (Linear)    (Quad)   (Total)
    R1        2.05078   0.00003   0.00000   0.00006   0.00006   2.05084
    R2        2.60821   0.00011   0.00000   0.00042   0.00042   2.60863
    R3        2.55850  -0.00024   0.00000  -0.00065  -0.00065   2.55785
    R4        2.04955  -0.00002   0.00000  -0.00006  -0.00006   2.04949
    R5        2.66743   0.00010   0.00000   0.00021   0.00021   2.66764
    R6        2.05380   0.00003   0.00000   0.00011   0.00011   2.05390
    R7        2.51125  -0.00024   0.00000  -0.00039  -0.00039   2.51086
    R8        2.52317   0.00003   0.00000   0.00017   0.00017   2.52333
    R9        1.90734  -0.00002   0.00000  -0.00002  -0.00002   1.90732
    A1        2.30569  -0.00002   0.00000  -0.00063  -0.00063   2.30506
    A2        2.12685   0.00012   0.00000   0.00083   0.00083   2.12769
    A3        1.85064  -0.00010   0.00000  -0.00020  -0.00020   1.85044
    A4        2.22197   0.00004   0.00000   0.00028   0.00028   2.22224
    A5        1.81876  -0.00004   0.00000  -0.00017  -0.00017   1.81859
    A6        2.24246   0.00000   0.00000  -0.00011  -0.00011   2.24236
    A7        2.24399  -0.00001   0.00000  -0.00009  -0.00009   2.24390
    A8        1.95454   0.00005   0.00000   0.00019   0.00019   1.95473
    A9        2.08465  -0.00004   0.00000  -0.00010  -0.00010   2.08455
   A10        1.81797  -0.00008   0.00000  -0.00028  -0.00028   1.81769
   A11        1.98287   0.00018   0.00000   0.00046   0.00046   1.98333
   A12        2.22136  -0.00001   0.00000   0.00047   0.00047   2.22183
   A13        2.07895  -0.00017   0.00000  -0.00092  -0.00092   2.07803
    D1        0.00000   0.00000   0.00000   0.00000   0.00000   0.00000
    D2        3.14159   0.00000   0.00000   0.00000   0.00000   3.14159
    D3        3.14159   0.00000   0.00000   0.00000   0.00000   3.14159
    D4        0.00000   0.00000   0.00000   0.00000   0.00000   0.00000
    D5        3.14159   0.00000   0.00000   0.00000   0.00000   3.14159
    D6        0.00000   0.00000   0.00000   0.00000   0.00000   0.00000
    D7        0.00000   0.00000   0.00000   0.00000   0.00000   0.00000
    D8        3.14159   0.00000   0.00000   0.00000   0.00000   3.14159
    D9        3.14159   0.00000   0.00000   0.00000   0.00000   3.14159
   D10        0.00000   0.00000   0.00000   0.00000   0.00000   0.00000
   D11        0.00000   0.00000   0.00000   0.00000   0.00000   0.00000
   D12        3.14159   0.00000   0.00000   0.00000   0.00000   3.14159
   D13        0.00000   0.00000   0.00000   0.00000   0.00000   0.00000
   D14        3.14159   0.00000   0.00000   0.00000   0.00000   3.14159
   D15        0.00000   0.00000   0.00000   0.00000   0.00000   0.00000
   D16        3.14159   0.00000   0.00000   0.00000   0.00000   3.14159
         Item               Value     Threshold  Converged?
 Maximum Force            0.000244     0.000450     YES
 RMS     Force            0.000080     0.000300     YES
 Maximum Displacement     0.001026     0.001800     YES
 RMS     Displacement     0.000282     0.001200     YES
 Predicted change in Energy=-3.781394D-07
 Optimization completed.
    -- Stationary point found.
                         ----------------------------
                         !   Optimized Parameters   !
                         ! (Angstroms and Degrees)  !
 ------------------------                            -------------------------
 ! Name  Definition              Value          Derivative Info.             !
 -----------------------------------------------------------------------------
 ! R1    R(1,2)                  1.0852         -DE/DX =    0.               !
 ! R2    R(2,4)                  1.3802         -DE/DX =    0.0001           !
 ! R3    R(2,9)                  1.3539         -DE/DX =   -0.0002           !
 ! R4    R(3,4)                  1.0846         -DE/DX =    0.               !
 ! R5    R(4,6)                  1.4115         -DE/DX =    0.0001           !
 ! R6    R(5,6)                  1.0868         -DE/DX =    0.               !
 ! R7    R(6,7)                  1.3289         -DE/DX =   -0.0002           !
 ! R8    R(7,9)                  1.3352         -DE/DX =    0.               !
 ! R9    R(8,9)                  1.0093         -DE/DX =    0.               !
 ! A1    A(1,2,4)              132.1065         -DE/DX =    0.               !
 ! A2    A(1,2,9)              121.8598         -DE/DX =    0.0001           !
 ! A3    A(4,2,9)              106.0337         -DE/DX =   -0.0001           !
 ! A4    A(2,4,3)              127.3094         -DE/DX =    0.               !
 ! A5    A(2,4,6)              104.207          -DE/DX =    0.               !
 ! A6    A(3,4,6)              128.4836         -DE/DX =    0.               !
 ! A7    A(4,6,5)              128.5712         -DE/DX =    0.               !
 ! A8    A(4,6,7)              111.987          -DE/DX =    0.               !
 ! A9    A(5,6,7)              119.4418         -DE/DX =    0.               !
 ! A10   A(6,7,9)              104.1621         -DE/DX =   -0.0001           !
 ! A11   A(2,9,7)              113.6102         -DE/DX =    0.0002           !
 ! A12   A(2,9,8)              127.2746         -DE/DX =    0.               !
 ! A13   A(7,9,8)              119.1152         -DE/DX =   -0.0002           !
 ! D1    D(1,2,4,3)              0.             -DE/DX =    0.               !
 ! D2    D(1,2,4,6)            180.             -DE/DX =    0.               !
 ! D3    D(9,2,4,3)            180.             -DE/DX =    0.               !
 ! D4    D(9,2,4,6)              0.             -DE/DX =    0.               !
 ! D5    D(1,2,9,7)            180.             -DE/DX =    0.               !
 ! D6    D(1,2,9,8)              0.             -DE/DX =    0.               !
 ! D7    D(4,2,9,7)              0.             -DE/DX =    0.               !
 ! D8    D(4,2,9,8)            180.             -DE/DX =    0.               !
 ! D9    D(2,4,6,5)            180.             -DE/DX =    0.               !
 ! D10   D(2,4,6,7)              0.             -DE/DX =    0.               !
 ! D11   D(3,4,6,5)              0.             -DE/DX =    0.               !
 ! D12   D(3,4,6,7)            180.             -DE/DX =    0.               !
 ! D13   D(4,6,7,9)              0.             -DE/DX =    0.               !
 ! D14   D(5,6,7,9)            180.             -DE/DX =    0.               !
 ! D15   D(6,7,9,2)              0.             -DE/DX =    0.               !
 ! D16   D(6,7,9,8)            180.             -DE/DX =    0.               !
 -----------------------------------------------------------------------------
 GradGradGradGradGradGradGradGradGradGradGradGradGradGradGradGradGradGrad

 1\1\GINC-INDIUM\Freq\RmPW1PW91\CC-pVDZ\C3H4N2\RDJ3\04-Jan-2001\0\\#N G
 EOM=ALLCHECK GUESS=TCHECK RMPW1PW91/CC-PVDZ FREQ\\1H pyrazole C3H4N2 c
 asno=288131\\0,1\H,-1.8981770799,0.,-1.1702263403\C,-0.9366760204,0.,-
 0.6670092957\H,0.675934178,0.,-2.1820696653\C,0.3580764205,0.,-1.14511
 7945\H,2.2411087818,0.,0.0961678051\C,1.1570640897,0.,0.018525828\N,0.
 422852769,0.,1.1261802253\H,-1.5925618135,0.,1.3521025315\N,-0.8367229
 125,0.,0.6831960811\\Version=IBM-RS6000-G98RevA.6\State=1-A'\HF=-226.1
 647023\RMSD=3.481e-09\RMSF=1.502e-04\Dipole=-0.8027581,0.,-0.3516865\D
 ipoleDeriv=-0.0023218,0.0000679,-0.0434686,-0.0001063,0.1737467,0.0000
 817,-0.0291995,0.000035,0.0818212,0.1174916,-0.0003171,-0.1324425,0.00
 00457,-0.0930615,-0.0000739,-0.2912261,-0.0000812,0.2203105,0.0991292,
 0.0001177,0.0278092,0.0000399,0.1559373,-0.0000018,0.0321402,-0.000165
 1,-0.0222842,-0.2456902,0.0000775,0.0117277,-0.0000849,-0.2162851,0.00
 00621,-0.0418792,0.0001626,-0.0191459,-0.0386644,-0.0000995,-0.008375,
 0.0001608,0.1362626,-0.0000985,-0.0316905,-0.0000356,0.0822652,0.20237
 39,0.0001333,0.1253491,-0.0000155,-0.0676012,0.000002,0.1815811,-0.000
 0605,0.1776015,0.0058684,0.0002027,-0.2185619,-0.0000501,-0.2291669,0.
 0000574,-0.1005385,0.0000877,-0.6003185,0.2123896,-0.000078,-0.0614377
 ,-0.0000751,0.2959601,0.000048,-0.0469494,0.0000647,0.2239447,-0.35057
 39,-0.0001046,0.2994002,0.0000854,-0.1557918,-0.000077,0.3277618,-0.00
 00074,-0.1441929\Polar=50.6205096,-0.0093464,19.4558491,-0.360738,0.00
 71478,45.8465935\PG=CS [SG(C3H4N2)]\NImag=0\\0.30894606,0.00000185,0.0
 2082308,0.13680288,0.00000063,0.12168420,-0.30483114,-0.00000189,-0.11
 828326,0.87989383,-0.00000368,-0.02591332,-0.00000159,0.00000327,0.121
 45213,-0.12784666,0.00000020,-0.12002399,0.09622588,0.00000109,0.66764
 893,0.00040904,0.00000083,-0.00090864,0.00253128,-0.00000129,0.0252329
 6,0.07493786,0.00000182,-0.00274471,0.00000095,0.00000110,-0.00188166,
 -0.00000064,-0.00000029,0.02206529,0.00040555,-0.00000156,-0.00008973,
 -0.00456474,0.00000227,0.00016572,-0.09511495,0.00000005,0.35247910,-0
 .00566467,-0.00000214,0.00930139,-0.36047145,0.00000348,0.08098397,-0.
 08255033,-0.00000221,0.08914830,0.63791559,0.00000377,0.00129123,0.000
 00168,-0.00000011,-0.06450631,0.00000097,0.00000030,-0.02632594,-0.000
 00102,-0.00000485,0.11763305,-0.01556506,-0.00000047,0.01228244,0.1098
 1097,-0.00000056,-0.14256353,0.08660138,0.00000115,-0.34080296,-0.1215
 2834,0.,0.84990872,-0.00021336,0.00000033,0.00029127,-0.00075850,0.000
 00028,-0.00132133,-0.00001978,-0.00000029,-0.00033036,-0.00461537,0.00
 000014,0.00489531,0.37561372,-0.00000346,0.00086017,-0.00000138,0.0000
 0085,0.00445302,-0.00000183,-0.00000072,-0.00190570,0.00000163,0.00000
 479,0.00110385,0.00000068,-0.00000051,0.02483892,-0.00105336,-0.000000
 33,0.00108370,-0.00304445,0.00000054,-0.00584244,0.00094650,0.00000011
 ,0.00033224,-0.02128258,-0.00000006,0.00689135,0.02250993,0.00000019,0
 .05462862,-0.00450658,0.00000099,0.00461940,-0.05551093,0.00000032,0.0
 0051197,0.01279684,-0.00000185,0.01309372,-0.18353451,-0.00000099,-0.1
 1586232,-0.35620000,-0.00000044,-0.03376768,0.90077716,-0.00000031,0.0
 0484964,0.00000028,-0.00000466,0.01166096,-0.00000250,0.00000209,-0.00
 287688,-0.00000185,0.00000188,-0.06671020,0.00000150,-0.00000023,-0.03
 109238,-0.00000067,0.00000105,0.14182375,0.00106624,0.00000418,-0.0021
 2238,-0.07074448,-0.00000802,0.03539532,-0.01457269,0.00000327,-0.0078
 4224,-0.08024916,0.00000759,-0.24338422,-0.02618181,-0.00000718,-0.059
 65423,-0.01059793,-0.00000100,0.63218439,0.00082746,0.00000045,0.00060
 649,-0.05964780,-0.00000374,-0.05115003,-0.00194158,0.00000175,-0.0011
 0615,0.02793005,0.00000186,0.04047492,-0.01319938,-0.00000048,0.027630
 18,-0.18600968,0.00000271,0.15205488,0.53695584,0.00000001,0.00674758,
 -0.00000108,0.00000336,0.01758397,0.00000540,-0.00000186,0.00658842,0.
 00000049,-0.00000174,0.02083260,-0.00000328,0.00000034,-0.00779049,0.0
 0000053,0.00000174,-0.07404615,0.00000192,-0.00000569,0.10804279,0.002
 09882,-0.00000189,-0.00581554,-0.01967731,0.00000580,-0.06756724,-0.00
 614802,-0.00000460,-0.00437405,-0.03306307,-0.00000665,-0.07758387,-0.
 00208118,0.00000502,0.00639033,0.11842913,0.00000319,-0.32059497,-0.04
 656036,-0.00000250,0.58481066,-0.00013078,0.00000071,0.00025576,0.0093
 7455,0.00000050,-0.00484350,0.00070777,-0.00000091,-0.00009919,0.00232
 834,-0.00000011,-0.00315234,-0.00039691,-0.00000084,0.00143940,-0.0071
 7072,0.00000003,-0.00563696,-0.02098767,0.00000131,0.02427683,0.299265
 68,0.00000044,-0.00166837,-0.00000003,0.00000005,-0.00754133,0.0000009
 2,0.00000006,0.00223556,-0.00000036,-0.00000099,0.00311576,-0.00000072
 ,0.00000036,0.00225363,-0.00000003,0.00000068,0.00468462,0.00000131,-0
 .00000113,-0.01266391,-0.00000054,0.00000073,0.01327397,-0.00058920,-0
 .00000033,0.00031886,0.02555743,-0.00000067,-0.00421401,0.00122591,0.0
 0000089,0.00017249,-0.00251507,0.00000045,-0.00689872,-0.00050712,0.00
 000032,0.00097179,-0.00619069,0.00000007,0.00110813,-0.01066749,-0.000
 00135,0.01563559,-0.20798317,-0.00000056,0.24988132,0.00516399,-0.0000
 0113,-0.03268529,-0.11057985,0.00000086,-0.01779326,-0.00687109,0.0000
 0089,-0.00143217,-0.03133766,-0.00000001,0.01432547,-0.00021038,0.0000
 0081,0.00662206,-0.12064160,-0.00000255,0.05486188,-0.28392724,0.00000
 253,-0.03727484,-0.28299024,-0.00000020,0.20166938,0.83139408,-0.00000
 044,-0.00424529,0.00000054,-0.00000195,-0.05530747,-0.00000362,0.00000
 089,0.00484563,0.00000036,0.00000177,0.01356596,0.00000174,-0.00000042
 ,0.00727899,-0.00000028,-0.00000151,0.01170663,-0.00000208,0.00000426,
 -0.06529481,0.00000216,-0.00000141,-0.00368993,0.00000118,-0.00000119,
 0.09114029,0.00468080,-0.00000043,-0.00731756,-0.01528006,0.00000114,-
 0.36299877,0.00273753,-0.00000117,-0.00004055,0.07920457,-0.00000295,-
 0.05784923,0.00272528,0.00000255,-0.00480133,0.02976439,0.00000097,-0.
 03508980,-0.11128243,-0.00000011,-0.13090091,0.19574316,0.,-0.25697545
 ,-0.18829324,0.,0.85597362\\-0.00001058,0.,0.00008450,0.00025404,0.,-0
 .00036461,-0.00002025,0.,-0.00002539,-0.00007305,0.,0.00016127,-0.0000
 2910,0.,-0.00002774,0.00018974,0.,-0.00025139,-0.00015402,0.,-0.000012
 19,-0.00006129,0.,-0.00004662,-0.00009549,0.,0.00048217\\\@

 LET US LEARN TO DREAM, GENTLEMEN, THEN PERHAPS WE SHALL
 DISCOVER THE TRUTH;  BUT LET US BEWARE OF PUBLISHING
 OUR DREAMS ABROAD BEFORE THEY HAVE BEEN SCRUTINIZED
 BY OUR VIGILANT INTELLECT ... LET US ALWAYS ALLOW
 THE FRUIT TO HANG UNTIL IT IS RIPE.  UNRIPE FRUIT
 BRINGS EVEN THE GROWER BUT LITTLE PROFIT; IT DAMAGES
 THE HEALTH OF THOSE WHO CONSUME IT; IT ENDANGERS
 PARTICULARLY THE YOUTH WHO CANNOT YET DISTINGUISH
 BETWEEN RIPE AND UNRIPE FRUIT.

                                  -- KEKULE, 1890
 Job cpu time:  0 days  0 hours 13 minutes  6.7 seconds.
 File lengths (MBytes):  RWF=   14 Int=    0 D2E=    0 Chk=    3 Scr=    1
 Normal termination of Gaussian 98.
