 Gaussian 98, Revision A.6,
 Gaussian 98:  IBM-RS6000-G98RevA.6 19-Oct-1998

 --------------------------
 #MPW1PW91/6-311G* opt freq
 --------------------------

 -------------------------------
 1H pyrazole C3H4N2 casno=288131
 -------------------------------
 Symbolic Z-matrix:
 Charge =  0 Multiplicity = 1

 SCF Done:  E(RmPW+HF-PW91) =  -226.131323220     A.U. after   13 cycles
 SCF Done:  E(RmPW+HF-PW91) =  -226.183318980     A.U. after   13 cycles
 SCF Done:  E(RmPW+HF-PW91) =  -226.192268662     A.U. after   13 cycles
 SCF Done:  E(RmPW+HF-PW91) =  -226.192403418     A.U. after   10 cycles
 SCF Done:  E(RmPW+HF-PW91) =  -226.192445153     A.U. after   10 cycles
 SCF Done:  E(RmPW+HF-PW91) =  -226.192446908     A.U. after    8 cycles
 Optimization completed.
    -- Stationary point found.
 Normal termination of Gaussian 98.

 ------------------------------------------------------
 #N Geom=AllCheck Guess=TCheck RmPW1PW91/6-311G(d) Freq
 ------------------------------------------------------

 1H pyrazole C3H4N2 casno=288131
 -------------------------------
 Redundant internal coordinates taken from checkpointfile:
 /wrk/rdj3/Gau-15054.chk
 Charge =  0 Multiplicity = 1

                         Standard orientation:
 ---------------------------------------------------------------------
 Center     Atomic     Atomic              Coordinates (Angstroms)
 Number     Number      Type              X           Y           Z
 ---------------------------------------------------------------------
    1          1             0        2.098401    0.726989    0.000000
    2          6             0        1.106620    0.303744    0.000000
    3          1             0        1.258944   -1.893095    0.000000
    4          6             0        0.660019   -0.997053    0.000000
    5          1             0       -1.483513   -1.669818    0.000000
    6          6             0       -0.743411   -0.883657    0.000000
    7          7             0       -1.138192    0.380329    0.000000
    8          1             0       -0.045848    2.081564    0.000000
    9          7             0        0.000000    1.079122    0.000000
 ---------------------------------------------------------------------

 SCF Done:  E(RmPW+HF-PW91) =  -226.192446908     A.U. after    1 cycles

  The electronic state is 1-A'.
 Alpha  occ. eigenvalues --  -14.46635 -14.40264 -10.26964 -10.24552 -10.22637
 Alpha  occ. eigenvalues --   -1.08321  -0.84497  -0.80683  -0.63364  -0.61730
 Alpha  occ. eigenvalues --   -0.56574  -0.46226  -0.45851  -0.44467  -0.41417
 Alpha  occ. eigenvalues --   -0.30503  -0.27242  -0.26224
 Alpha virt. eigenvalues --    0.02445   0.04992   0.07541   0.09027   0.10157
 Alpha virt. eigenvalues --    0.12086   0.21520   0.22443   0.26007   0.27615
 Alpha virt. eigenvalues --    0.35777   0.39920   0.40567   0.41894   0.43493

  Exact polarizability:  47.630   1.820  48.746   0.007  -0.015  21.667
 Approx polarizability:  74.609   1.051  76.275   0.000   0.000  30.839

                     1                      2                      3
                    A"                     A"                     A"
 Frequencies --   546.1958               646.2463               704.4176
 Red. masses --     1.7508                 2.4889                 2.7733
 Frc consts  --     0.3077                 0.6124                 0.8108
 IR Inten    --    64.7223                 0.1873                22.7848
 Raman Activ --     0.0000                 0.0000                 0.0000

                     4                      5                      6
                    A"                     A"                     A"
 Frequencies --   756.0659               845.6938               897.8230
 Red. masses --     1.2155                 1.2186                 1.3300
 Frc consts  --     0.4094                 0.5135                 0.6316
 IR Inten    --    99.5503                12.7187                 5.3610
 Raman Activ --     0.0000                 0.0000                 0.0000

                     7                      8                      9
                    A'                     A'                     A'
 Frequencies --   930.8759               950.9350              1066.2985
 Red. masses --     5.5704                 3.7033                 1.4501
 Frc consts  --     2.8439                 1.9731                 0.9714
 IR Inten    --     9.7505                 4.3912                13.4090
 Raman Activ --     0.0000                 0.0000                 0.0000

                    10                     11                     12
                    A'                     A'                     A'
 Frequencies --  1071.3307              1166.3280              1212.8062
 Red. masses --     1.5041                 1.7994                 3.3727
 Frc consts  --     1.0171                 1.4422                 2.9229
 IR Inten    --    36.8886                18.6413                 2.6656
 Raman Activ --     0.0000                 0.0000                 0.0000

                    13                     14                     15
                    A'                     A'                     A'
 Frequencies --  1305.1863              1414.3934              1455.8760
 Red. masses --     1.7311                 2.7854                 4.1185
 Frc consts  --     1.7375                 3.2831                 5.1433
 IR Inten    --     3.9342                 3.1285                15.7331
 Raman Activ --     0.0000                 0.0000                 0.0000

                    16                     17                     18
                    A'                     A'                     A'
 Frequencies --  1520.9541              1599.7240              3266.5056
 Red. masses --     2.7206                 2.8583                 1.0928
 Frc consts  --     3.7080                 4.3098                 6.8700
 IR Inten    --     6.3145                 6.2663                 5.3797
 Raman Activ --     0.0000                 0.0000                 0.0000

                    19                     20                     21
                    A'                     A'                     A'
 Frequencies --  3280.3842              3299.0637              3722.6468
 Red. masses --     1.0946                 1.1078                 1.0816
 Frc consts  --     6.9400                 7.1038                 8.8314
 IR Inten    --     4.6109                 1.9139                65.3650
 Raman Activ --     0.0000                 0.0000                 0.0000

 - Thermochemistry -
 -------------------
 Temperature   298.150 Kelvin.  Pressure   1.00000 Atm.
 Atom  1 has atomic number  1 and mass   1.00783

 Molecular mass:    68.03745 amu.
 Principal axes and moments of inertia in atomic units:
                           1         2         3
     EIGENVALUES --   185.09321 189.70473 374.79793
           X            0.91058   0.41332   0.00000
           Y           -0.41332   0.91058   0.00000
           Z            0.00000   0.00000   1.00000
 THIS MOLECULE IS AN ASYMMETRIC TOP.
 ROTATIONAL SYMMETRY NUMBER  1.
 ROTATIONAL TEMPERATURES (KELVIN)      0.46794     0.45657     0.23109
 ROTATIONAL CONSTANTS (GHZ)            9.75045     9.51342     4.81524
 Zero-point vibrational energy     189367.4 (Joules/Mol)
                                   45.25989 (Kcal/Mol)
 WARNING-- EXPLICIT CONSIDERATION OF   1 DEGREES OF FREEDOM AS
           VIBRATIONS MAY CAUSE SIGNIFICANT ERROR
 VIBRATIONAL TEMPERATURES:    785.85   929.80  1013.49  1087.80  1216.76
          (KELVIN)           1291.76  1339.32  1368.18  1534.16  1541.40
                             1678.08  1744.95  1877.86  2034.98  2094.67
                             2188.30  2301.63  4699.75  4719.71  4746.59
                             5356.03

 Zero-point correction=                           0.072126 (Hartree/Particle)
 Thermal correction to Energy=                    0.075826
 Thermal correction to Enthalpy=                  0.076771
 Thermal correction to Gibbs Free Energy=         0.045890
 Sum of electronic and zero-point Energies=           -226.120321
 Sum of electronic and thermal Energies=              -226.116621
 Sum of electronic and thermal Enthalpies=            -226.115676
 Sum of electronic and thermal Free Energies=         -226.146557

                     E (Thermal)             CV                S
                      KCAL/MOL        CAL/MOL-KELVIN    CAL/MOL-KELVIN
 TOTAL                   47.582             13.063             64.993
 ELECTRONIC               0.000              0.000              0.000
 TRANSLATIONAL            0.889              2.981             38.570
 ROTATIONAL               0.889              2.981             24.091
 VIBRATIONAL             45.804              7.101              2.332
 VIBRATION  1             0.901              1.148              0.552
                       Q            LOG10(Q)             LN(Q)
 TOTAL BOT       0.780006D-21        -21.107902        -48.602740
 TOTAL V=0       0.116852D+13         12.067635         27.786756
 VIB (BOT)       0.861060D-33        -33.064967        -76.134899
 VIB (BOT)  1    0.288369D+00         -0.540051         -1.243513
 VIB (V=0)       0.128994D+01          0.110570          0.254597
 VIB (V=0)  1    0.107720D+01          0.032295          0.074363
 ELECTRONIC      0.100000D+01          0.000000          0.000000
 TRANSLATIONAL   0.220588D+08          7.343582         16.909224
 ROTATIONAL      0.410660D+05          4.613482         10.622936
 ***** Axes restored to original set *****
 -------------------------------------------------------------------
 Center     Atomic                   Forces (Hartrees/Bohr)
 Number     Number              X              Y              Z
 -------------------------------------------------------------------
    1          1           0.000027808    0.000000000   -0.000057514
    2          6          -0.000125843    0.000000000    0.000481244
    3          1           0.000038182    0.000000000    0.000016196
    4          6           0.000168889    0.000000000   -0.000222771
    5          1           0.000038774    0.000000000   -0.000007008
    6          6           0.000051448    0.000000000    0.000150394
    7          7           0.000020721    0.000000000   -0.000192837
    8          1           0.000008059    0.000000000    0.000059684
    9          7          -0.000228039    0.000000000   -0.000227388
 -------------------------------------------------------------------
 Cartesian Forces:  Max     0.000481244 RMS     0.000136511

 GradGradGradGradGradGradGradGradGradGradGradGradGradGradGradGradGradGrad
 Berny optimization.
 Internal  Forces:  Max     0.000277654 RMS     0.000077194
 Search for a local minimum.
 Step number   1 out of a maximum of  48
 All quantities printed in internal units (Hartrees-Bohrs-Radians)
 Second derivative matrix not updated -- analytic derivatives used.
     Eigenvalues ---    0.00767   0.01157   0.01615   0.02777   0.05967
     Eigenvalues ---    0.06322   0.09412   0.10427   0.11202   0.12271
     Eigenvalues ---    0.22793   0.27034   0.35849   0.37395   0.37915
     Eigenvalues ---    0.38140   0.41478   0.44124   0.49181   0.50781
     Eigenvalues ---    0.588031000.000001000.000001000.000001000.00000
     Eigenvalues --- 1000.000001000.000001000.000001000.000001000.00000
     Eigenvalues --- 1000.000001000.000001000.000001000.000001000.00000
     Eigenvalues --- 1000.000001000.000001000.00000
 Angle between quadratic step and forces=  36.63 degrees.
 Linear search not attempted -- first point.
 Iteration  1 RMS(Cart)=  0.00024251 RMS(Int)=  0.00000009
 Iteration  2 RMS(Cart)=  0.00000009 RMS(Int)=  0.00000001
 Variable       Old X    -DE/DX   Delta X   Delta X   Delta X     New X
                                 (Linear)    (Quad)   (Total)
    R1        2.03772   0.00000   0.00000   0.00002   0.00002   2.03775
    R2        2.59899   0.00028   0.00000   0.00055   0.00055   2.59954
    R3        2.55345  -0.00024   0.00000  -0.00065  -0.00065   2.55280
    R4        2.03670   0.00000   0.00000  -0.00003  -0.00003   2.03668
    R5        2.66074   0.00002   0.00000   0.00014   0.00014   2.66088
    R6        2.04038   0.00004   0.00000   0.00010   0.00010   2.04048
    R7        2.50238  -0.00007   0.00000  -0.00021  -0.00021   2.50217
    R8        2.52389   0.00006   0.00000   0.00022   0.00022   2.52411
    R9        1.89632   0.00003   0.00000   0.00005   0.00005   1.89637
    A1        2.30487  -0.00010   0.00000  -0.00089  -0.00089   2.30398
    A2        2.12706   0.00002   0.00000   0.00056   0.00056   2.12762
    A3        1.85125   0.00008   0.00000   0.00034   0.00034   1.85159
    A4        2.22166   0.00007   0.00000   0.00033   0.00033   2.22199
    A5        1.82089  -0.00006   0.00000  -0.00028  -0.00028   1.82061
    A6        2.24063   0.00000   0.00000  -0.00005  -0.00005   2.24058
    A7        2.24540   0.00002   0.00000  -0.00006  -0.00006   2.24534
    A8        1.95415  -0.00008   0.00000  -0.00012  -0.00012   1.95403
    A9        2.08363   0.00006   0.00000   0.00018   0.00018   2.08381
   A10        1.81868   0.00016   0.00000   0.00034   0.00034   1.81902
   A11        1.97980  -0.00009   0.00000  -0.00027  -0.00027   1.97953
   A12        2.22768   0.00010   0.00000   0.00070   0.00070   2.22838
   A13        2.07571  -0.00001   0.00000  -0.00042  -0.00042   2.07528
    D1        0.00000   0.00000   0.00000   0.00000   0.00000   0.00000
    D2        3.14159   0.00000   0.00000   0.00000   0.00000   3.14159
    D3        3.14159   0.00000   0.00000   0.00000   0.00000   3.14159
    D4        0.00000   0.00000   0.00000   0.00000   0.00000   0.00000
    D5        3.14159   0.00000   0.00000   0.00000   0.00000   3.14159
    D6        0.00000   0.00000   0.00000   0.00000   0.00000   0.00000
    D7        0.00000   0.00000   0.00000   0.00000   0.00000   0.00000
    D8        3.14159   0.00000   0.00000   0.00000   0.00000   3.14159
    D9        3.14159   0.00000   0.00000   0.00000   0.00000   3.14159
   D10        0.00000   0.00000   0.00000   0.00000   0.00000   0.00000
   D11        0.00000   0.00000   0.00000   0.00000   0.00000   0.00000
   D12        3.14159   0.00000   0.00000   0.00000   0.00000   3.14159
   D13        0.00000   0.00000   0.00000   0.00000   0.00000   0.00000
   D14        3.14159   0.00000   0.00000   0.00000   0.00000   3.14159
   D15        0.00000   0.00000   0.00000   0.00000   0.00000   0.00000
   D16        3.14159   0.00000   0.00000   0.00000   0.00000   3.14159
         Item               Value     Threshold  Converged?
 Maximum Force            0.000278     0.000450     YES
 RMS     Force            0.000077     0.000300     YES
 Maximum Displacement     0.000836     0.001800     YES
 RMS     Displacement     0.000243     0.001200     YES
 Predicted change in Energy=-3.393970D-07
 Optimization completed.
    -- Stationary point found.
                         ----------------------------
                         !   Optimized Parameters   !
                         ! (Angstroms and Degrees)  !
 ------------------------                            -------------------------
 ! Name  Definition              Value          Derivative Info.             !
 -----------------------------------------------------------------------------
 ! R1    R(1,2)                  1.0783         -DE/DX =    0.               !
 ! R2    R(2,4)                  1.3753         -DE/DX =    0.0003           !
 ! R3    R(2,9)                  1.3512         -DE/DX =   -0.0002           !
 ! R4    R(3,4)                  1.0778         -DE/DX =    0.               !
 ! R5    R(4,6)                  1.408          -DE/DX =    0.               !
 ! R6    R(5,6)                  1.0797         -DE/DX =    0.               !
 ! R7    R(6,7)                  1.3242         -DE/DX =   -0.0001           !
 ! R8    R(7,9)                  1.3356         -DE/DX =    0.0001           !
 ! R9    R(8,9)                  1.0035         -DE/DX =    0.               !
 ! A1    A(1,2,4)              132.0593         -DE/DX =   -0.0001           !
 ! A2    A(1,2,9)              121.8716         -DE/DX =    0.               !
 ! A3    A(4,2,9)              106.0691         -DE/DX =    0.0001           !
 ! A4    A(2,4,3)              127.2919         -DE/DX =    0.0001           !
 ! A5    A(2,4,6)              104.3294         -DE/DX =   -0.0001           !
 ! A6    A(3,4,6)              128.3787         -DE/DX =    0.               !
 ! A7    A(4,6,5)              128.6521         -DE/DX =    0.               !
 ! A8    A(4,6,7)              111.9646         -DE/DX =   -0.0001           !
 ! A9    A(5,6,7)              119.3834         -DE/DX =    0.0001           !
 ! A10   A(6,7,9)              104.2027         -DE/DX =    0.0002           !
 ! A11   A(2,9,7)              113.4343         -DE/DX =   -0.0001           !
 ! A12   A(2,9,8)              127.6365         -DE/DX =    0.0001           !
 ! A13   A(7,9,8)              118.9292         -DE/DX =    0.               !
 ! D1    D(1,2,4,3)              0.             -DE/DX =    0.               !
 ! D2    D(1,2,4,6)            180.             -DE/DX =    0.               !
 ! D3    D(9,2,4,3)            180.             -DE/DX =    0.               !
 ! D4    D(9,2,4,6)              0.             -DE/DX =    0.               !
 ! D5    D(1,2,9,7)            180.             -DE/DX =    0.               !
 ! D6    D(1,2,9,8)              0.             -DE/DX =    0.               !
 ! D7    D(4,2,9,7)              0.             -DE/DX =    0.               !
 ! D8    D(4,2,9,8)            180.             -DE/DX =    0.               !
 ! D9    D(2,4,6,5)            180.             -DE/DX =    0.               !
 ! D10   D(2,4,6,7)              0.             -DE/DX =    0.               !
 ! D11   D(3,4,6,5)              0.             -DE/DX =    0.               !
 ! D12   D(3,4,6,7)            180.             -DE/DX =    0.               !
 ! D13   D(4,6,7,9)              0.             -DE/DX =    0.               !
 ! D14   D(5,6,7,9)            180.             -DE/DX =    0.               !
 ! D15   D(6,7,9,2)              0.             -DE/DX =    0.               !
 ! D16   D(6,7,9,8)            180.             -DE/DX =    0.               !
 -----------------------------------------------------------------------------
 GradGradGradGradGradGradGradGradGradGradGradGradGradGradGradGradGradGrad

 1\1\GINC-FERRUM\Freq\RmPW1PW91\6-311G(d)\C3H4N2\RDJ3\11-Jan-2001\0\\#N
  GEOM=ALLCHECK GUESS=TCHECK RMPW1PW91/6-311G(D) FREQ\\1H pyrazole C3H4
 N2 casno=288131\\0,1\H,-1.8887635546,0.,-1.1680629169\C,-0.9343082982,
 0.,-0.6662848248\H,0.6729607519,0.,-2.1716065882\C,0.3563541297,0.,-1.
 1413812406\H,2.2315698801,0.,0.0959170217\C,1.1546297928,0.,0.01845925
 41\N,0.4238066652,0.,1.1227287245\H,-1.5851189371,0.,1.3499665995\N,-0
 .8367640775,0.,0.6814179543\\Version=IBM-RS6000-G98RevA.6\State=1-A'\H
 F=-226.1924469\RMSD=1.354e-09\RMSF=1.365e-04\Dipole=-0.8170099,0.,-0.4
 054942\DipoleDeriv=-0.0188782,-0.0002479,-0.057236,-0.0000429,0.190962
 6,0.0001478,-0.0427913,-0.0000605,0.076066,0.1488146,0.0003824,-0.1273
 131,-0.0001559,-0.091287,-0.0000539,-0.2875644,-0.0005107,0.2194308,0.
 0983892,-0.0002501,0.0367128,-0.0001072,0.1804979,0.0002378,0.0421925,
 0.0004142,-0.047435,-0.2536017,-0.0001887,-0.002523,0.0001562,-0.24292
 34,-0.0002431,-0.0531783,-0.0006019,-0.0053606,-0.0665337,-0.0001169,-
 0.0062086,0.000101,0.1526787,-0.0000704,-0.0330889,-0.0000609,0.084190
 7,0.2336626,0.0001708,0.1110525,0.0001269,-0.0804514,-0.0000191,0.1945
 163,0.0003889,0.1956062,-0.0058738,0.0000545,-0.2216962,-0.0004244,-0.
 2234009,0.0001646,-0.1027758,-0.0000457,-0.5995113,0.1946827,-0.000125
 4,-0.0333855,-0.0000681,0.3333485,0.0001403,-0.0194273,0.0001647,0.211
 4646,-0.3306614,0.0003212,0.300597,0.0004144,-0.2194247,-0.0003044,0.3
 021161,0.0003122,-0.134451\Polar=50.0831528,0.0075433,21.6668934,-0.17
 78746,-0.0148326,46.2930279\PG=CS [SG(C3H4N2)]\NImag=0\\0.30690413,-0.
 00000209,0.02051866,0.13566511,-0.00000033,0.12321187,-0.30189939,0.00
 000255,-0.11631089,0.87397026,0.00000242,-0.02501898,0.00000064,-0.000
 00366,0.11976290,-0.12628985,-0.00000101,-0.12143062,0.09788473,0.0000
 0030,0.66220167,0.00019062,-0.00000134,-0.00085087,0.00220203,0.000000
 65,0.02604092,0.07672755,-0.00000422,-0.00276702,-0.00000128,0.0000056
 6,-0.00204585,-0.00000594,-0.00000297,0.02179527,0.00056540,0.00000362
 ,-0.00020423,-0.00335526,-0.00000315,0.00032992,-0.09399490,0.00000602
 ,0.35021209,-0.00669391,-0.00000143,0.00905067,-0.35305554,0.00000100,
 0.07648516,-0.08431032,-0.00000252,0.08753441,0.63267142,0.00000385,0.
 00099580,0.00000113,-0.00000515,-0.06418455,0.00000676,0.00000256,-0.0
 2559464,-0.00000400,0.00000267,0.11654902,-0.01528021,-0.00000609,0.01
 294735,0.10405299,0.00000319,-0.14481086,0.08503775,-0.00000933,-0.337
 43779,-0.12199392,0.00000732,0.84416099,-0.00020590,-0.00000252,0.0002
 6200,-0.00085653,0.00000491,-0.00135385,-0.00016037,0.00000017,-0.0005
 7380,-0.00472968,-0.00000210,0.00396540,0.37417579,-0.00000188,0.00085
 986,-0.00000204,0.00000476,0.00451044,-0.00000808,-0.00000440,-0.00185
 757,0.00000600,-0.00000146,0.00078393,-0.00000486,0.00000184,0.0246812
 4,-0.00105722,-0.00000054,0.00105980,-0.00303302,0.00000125,-0.0059480
 0,0.00090073,-0.00000049,0.00010081,-0.02175117,0.00000016,0.00703823,
 0.02213123,0.00000008,0.05652968,-0.00471410,0.00000357,0.00457320,-0.
 05576464,-0.00000316,-0.00002620,0.01358047,0.00000065,0.01237897,-0.1
 8389156,0.00000161,-0.10853563,-0.35337354,-0.00000363,-0.03396415,0.8
 9866574,0.00000140,0.00491709,0.00000173,-0.00000340,0.01168434,0.0000
 0903,0.00000439,-0.00320657,-0.00000441,0.00000150,-0.06623220,0.00000
 509,-0.00000676,-0.03051780,-0.00000120,0.00000615,0.14085131,0.001003
 46,0.00000403,-0.00210803,-0.07126133,-0.00000396,0.03667417,-0.014965
 31,0.00000619,-0.00877062,-0.07393489,-0.00000636,-0.23728202,-0.02589
 784,0.00000068,-0.06161368,-0.01205500,0.00000003,0.62404876,0.0005954
 4,0.00000090,0.00057891,-0.05957380,-0.00000366,-0.05122713,-0.0020056
 8,-0.00000101,-0.00105757,0.02911167,0.00000176,0.04027990,-0.01402999
 ,-0.00000260,0.02862082,-0.18590797,0.00000608,0.14723086,0.52679540,-
 0.00000042,0.00671830,-0.00000033,-0.00000012,0.01752984,-0.00000582,-
 0.00000138,0.00664354,-0.00000230,-0.00000054,0.02086913,-0.00000070,0
 .00001378,-0.00792681,0.00000213,-0.00000898,-0.07417906,-0.00000219,-
 0.00000833,0.10823969,0.00216611,-0.00000012,-0.00579320,-0.02007006,0
 .00000180,-0.06877224,-0.00616871,-0.00000209,-0.00428414,-0.03383638,
 0.00000353,-0.07901564,-0.00090615,-0.00000259,0.00653609,0.11367368,0
 .00000183,-0.31658475,-0.04752767,0.00000227,0.58281478,-0.00022392,-0
 .00000156,0.00043642,0.01073053,0.00000220,-0.00381167,0.00070443,-0.0
 0000156,-0.00012686,0.00188506,0.00000089,-0.00318041,-0.00041214,-0.0
 0000082,0.00147793,-0.00776744,-0.00000063,-0.00545109,-0.02309133,0.0
 0000437,0.02536727,0.30401619,-0.00000205,-0.00153911,-0.00000034,0.00
 000267,-0.00798590,-0.00000165,-0.00000144,0.00233674,0.00000378,-0.00
 000077,0.00315590,-0.00000541,-0.00000166,0.00225386,-0.00000041,0.000
 00298,0.00459490,0.00000222,0.00000081,-0.01268335,0.00000139,-0.00000
 129,0.01313818,-0.00077251,0.00000157,0.00004015,0.02589528,-0.0000019
 5,-0.00616652,0.00125004,0.00000231,0.00017891,-0.00227234,-0.00000174
 ,-0.00707401,-0.00050716,0.00000216,0.00095800,-0.00595426,-0.00000114
 ,0.00089307,-0.01131968,-0.00000262,0.01715899,-0.21038686,0.00000143,
 0.25806221,0.00604704,0.00000191,-0.03340455,-0.11575292,-0.00000070,-
 0.01770211,-0.00692872,0.00000580,-0.00137039,-0.03098714,-0.00000607,
 0.01565413,-0.00040764,0.00000818,0.00667485,-0.12082696,-0.00000873,0
 .05533114,-0.27189376,0.00000163,-0.03269809,-0.28584137,0.00000075,0.
 20406748,0.82659146,0.00000300,-0.00468460,0.00000082,-0.00000331,-0.0
 5425225,0.00000642,0.00000393,0.00469610,-0.00000556,0.00000157,0.0136
 5760,0.00001080,-0.00000767,0.00721286,-0.00000098,0.00000081,0.012088
 00,-0.00000064,0.00000604,-0.06521129,-0.00000603,-0.00000159,-0.00327
 122,-0.00000003,-0.00000278,0.08976479,0.00399971,-0.00000114,-0.00772
 311,-0.01380243,0.00000188,-0.35207754,0.00275035,0.00000461,-0.000124
 94,0.08071847,-0.00000678,-0.05852624,0.00288015,0.00000866,-0.0046609
 5,0.02990942,-0.00001096,-0.03525693,-0.10557844,0.00000956,-0.1320598
 9,0.19567525,-0.00000100,-0.26405080,-0.19655248,-0.00000481,0.8544804
 0\\-0.00002781,0.,0.00005751,0.00012584,0.,-0.00048124,-0.00003818,0.,
 -0.00001620,-0.00016889,0.,0.00022277,-0.00003877,0.,0.00000701,-0.000
 05145,0.,-0.00015039,-0.00002072,0.,0.00019284,-0.00000806,0.,-0.00005
 968,0.00022804,0.,0.00022739\\\@

 TIME IS IN FACT THE HERO OF THE PLOT. THE TIME
 WITH WHICH WE HAVE TO DEAL IS OF THE ORDER OF TWO
 BILLION YEARS...GIVEN SO MUCH TIME, THE "IMPOSSIBLE"
 BECOMES POSSIBLE, THE POSSIBLE PROBABLE, THE PROBABLE
 VIRTUALLY CERTAIN.  ONE HAS ONLY TO WAIT, TIME
 ITSELF PERFORMS THE MIRACLES.
 "ORIGIN OF LIFE" LECTURES, GEORGE WALD, 1954
 Job cpu time:  0 days  0 hours 13 minutes 43.5 seconds.
 File lengths (MBytes):  RWF=   20 Int=    0 D2E=    0 Chk=    3 Scr=    1
 Normal termination of Gaussian 98.
