 Gaussian 98, Revision A.6,
 Gaussian 98:  IBM-RS6000-G98RevA.6 19-Oct-1998

 ----------------
 #CCSD(T)/cc-pVDZ
 ----------------

 ---------------------------------------------------
 1hpyraz single point casno=288131 method=27 basis=5
 ---------------------------------------------------
 Symbolic Z-matrix:
 Charge =  0 Multiplicity = 1

                         Standard orientation:
 ---------------------------------------------------------------------
 Center     Atomic     Atomic              Coordinates (Angstroms)
 Number     Number      Type              X           Y           Z
 ---------------------------------------------------------------------
    1          1             0        2.080447    0.722417    0.000000
    2          6             0        1.096394    0.302400    0.000000
    3          1             0        1.255542   -1.879784    0.000000
    4          6             0        0.662812   -0.989701    0.000000
    5          1             0       -1.474873   -1.658768    0.000000
    6          6             0       -0.745544   -0.874478    0.000000
    7          7             0       -1.127859    0.370571    0.000000
    8          1             0       -0.048078    2.066660    0.000000
    9          7             0        0.000000    1.075164    0.000000
 ---------------------------------------------------------------------

 SCF Done:  E(RHF) =  -224.815595078     A.U. after   14 cycles
 CCSD(T)= -0.22558951076D+03

  The electronic state is 1-A'.
 Alpha  occ. eigenvalues --  -15.63506 -15.57903 -11.27417 -11.24713 -11.21771
 Alpha  occ. eigenvalues --   -1.38744  -1.10405  -1.05343  -0.82354  -0.80435
 Alpha  occ. eigenvalues --   -0.74373  -0.61190  -0.61085  -0.59080  -0.56003
 Alpha  occ. eigenvalues --   -0.45212  -0.36267  -0.34428
 Alpha virt. eigenvalues --    0.17939   0.18184   0.22317   0.23038   0.24007
 Alpha virt. eigenvalues --    0.24907   0.39042   0.39936   0.42313   0.51398
 Alpha virt. eigenvalues --    0.60378   0.63595   0.68433   0.69010   0.73077

 4\MP4SDQ=-225.5594878\CCSD=-225.5593698\CCSD(T)=-225.5895108\RMSD=7.35
 Normal termination of Gaussian 98.
