 Gaussian 09, Revision B.01,
 Gaussian 09:  EM64L-G09RevB.01 12-Aug-2010

 -------------------------
 #MP2=FULL/STO-3G opt freq
 -------------------------

 -------------------------------------------------------------------
 1hpyraz 1H-Pyrazole casno=288131 state=1 config=1 method=2 basis=20
 -------------------------------------------------------------------
 Symbolic Z-matrix:
 Charge =  0 Multiplicity = 1

 SCF Done:  E(RHF) =  -221.969568324     A.U. after   13 cycles
 E2 =    -0.2831119774D+00 EUMP2 =    -0.22225268030159D+03
 SCF Done:  E(RHF) =  -221.968168125     A.U. after   14 cycles
 E2 =    -0.3105335077D+00 EUMP2 =    -0.22227870163283D+03
 SCF Done:  E(RHF) =  -221.967488109     A.U. after   12 cycles
 E2 =    -0.3118321045D+00 EUMP2 =    -0.22227932021396D+03
 SCF Done:  E(RHF) =  -221.966862046     A.U. after   11 cycles
 E2 =    -0.3125279696D+00 EUMP2 =    -0.22227939001532D+03
 SCF Done:  E(RHF) =  -221.966944913     A.U. after   10 cycles
 E2 =    -0.3124627688D+00 EUMP2 =    -0.22227940768223D+03
 Optimization completed.
    -- Stationary point found.
 Normal termination of Gaussian 09 at Wed Feb  8 11:17:31 2012.

 ---------------------------------------------------------------------
 #N Geom=AllCheck Guess=TCheck SCRF=Check GenChk RMP2-Full/STO-3G Freq
 ---------------------------------------------------------------------

 1hpyraz 1H-Pyrazole casno=288131 state=1 config=1 method=2 basis=20
 -------------------------------------------------------------------
 Redundant internal coordinates taken from checkpoint file:
 /tmp/rdj3/g09-5811/Gau-6622.chk
 Charge =  0 Multiplicity = 1

                         Standard orientation:
 ---------------------------------------------------------------------
 Center     Atomic      Atomic             Coordinates (Angstroms)
 Number     Number       Type             X           Y           Z
 ---------------------------------------------------------------------
      1          1           0        2.150965    0.748217    0.000000
      2          6           0        1.145439    0.310644    0.000000
      3          1           0        1.302901   -1.914353    0.000000
      4          6           0        0.688493   -1.009253    0.000000
      5          1           0       -1.463826   -1.752151    0.000000
      6          6           0       -0.740046   -0.927878    0.000000
      7          7           0       -1.217250    0.384896    0.000000
      8          1           0       -0.032610    2.161953    0.000000
      9          7           0        0.000000    1.117283    0.000000
 ---------------------------------------------------------------------

 SCF Done:  E(RHF) =  -221.966944913     A.U. after    1 cycles
 E2 =    -0.3124627695D+00 EUMP2 =    -0.22227940768298D+03
 E2 =    -0.3124627695D+00 EUMP2 =    -0.22227940768298D+03

 The electronic state is 1-A'.
 Alpha  occ. eigenvalues --  -15.42604 -15.35109 -11.07732 -11.04053 -11.01368
 Alpha  occ. eigenvalues --   -1.26221  -1.01142  -0.97372  -0.75527  -0.71776
 Alpha  occ. eigenvalues --   -0.67015  -0.53189  -0.52203  -0.50957  -0.49619
 Alpha  occ. eigenvalues --   -0.37590  -0.29651  -0.26780
 Alpha virt. eigenvalues --    0.26575   0.36998   0.51272   0.57943   0.63805
 Alpha virt. eigenvalues --    0.65124   0.69869   0.73330   0.85557   0.90289
 Alpha virt. eigenvalues --    1.06659

 Mulliken atomic charges:
              1
     1  H    0.083693
     2  C    0.037511
     3  H    0.068334
     4  C   -0.107934
     5  H    0.072245
     6  C   -0.001292
     7  N   -0.143878
     8  H    0.222483
     9  N   -0.231162
 Sum of Mulliken atomic charges =   0.00000

 Dipole moment (field-independent basis, Debye):
    X=              2.0611    Y=              0.7991    Z=              0.0000  Tot=              2.2105
 Quadrupole moment (field-independent basis, Debye-Ang):
   XX=            -28.2338   YY=            -21.8082   ZZ=            -28.4639
   XY=              2.3236   XZ=              0.0000   YZ=              0.0000

  Exact polarizability:  28.055   2.241  32.502   0.000   0.000   5.029
 Approx polarizability:  32.184   0.160  35.481   0.000   0.000   3.760

                     1                      2                      3
                    A"                     A"                     A"
 Frequencies --   400.2978               660.0281               685.3251
 Red. masses --     2.0385                 3.1863                 2.3676
 Frc consts  --     0.1925                 0.8178                 0.6552
 IR Inten    --    50.1055                 0.8768                20.1469

                     4                      5                      6
                    A"                     A"                     A"
 Frequencies --   791.9534               884.0875               937.4658
 Red. masses --     1.1901                 1.1825                 1.2170
 Frc consts  --     0.4398                 0.5445                 0.6301
 IR Inten    --    28.1070                 5.6226                 0.0002

                     7                      8                      9
                    A'                     A'                     A'
 Frequencies --   938.7139               949.7646              1089.8312
 Red. masses --     5.0579                 5.3237                 1.9640
 Frc consts  --     2.6260                 2.8294                 1.3744
 IR Inten    --     5.2923                 1.2264                 5.2222

                    10                     11                     12
                    A'                     A'                     A'
 Frequencies --  1120.4431              1186.8734              1210.3998
 Red. masses --     1.4317                 1.4248                 2.7296
 Frc consts  --     1.0590                 1.1825                 2.3562
 IR Inten    --     0.9202                 5.3312                 5.0537

                    13                     14                     15
                    A'                     A'                     A'
 Frequencies --  1284.4049              1437.5564              1508.6181
 Red. masses --     1.8897                 2.2323                 3.2854
 Frc consts  --     1.8367                 2.7180                 4.4055
 IR Inten    --     1.7761                 7.7872                17.1496

                    16                     17                     18
                    A'                     A'                     A'
 Frequencies --  1592.6816              1651.4241              3556.7340
 Red. masses --     3.0189                 3.4340                 1.0926
 Frc consts  --     4.5119                 5.5178                 8.1433
 IR Inten    --    16.0366                 5.7834                 0.4526

                    19                     20                     21
                    A'                     A'                     A'
 Frequencies --  3563.3275              3590.5553              3846.7466
 Red. masses --     1.0984                 1.1119                 1.0846
 Frc consts  --     8.2174                 8.4459                 9.4562
 IR Inten    --    15.1835                10.6861                70.2540

 - Thermochemistry -
 -------------------
 Temperature   298.150 Kelvin.  Pressure   1.00000 Atm.
 Atom     1 has atomic number  1 and mass   1.00783

 Molecular mass:    68.03745 amu.
 Principal axes and moments of inertia in atomic units:
                           1         2         3
     Eigenvalues --   196.64049 205.29344 401.93393
           X            0.94561   0.32529   0.00000
           Y           -0.32529   0.94561   0.00000
           Z            0.00000   0.00000   1.00000
 This molecule is an asymmetric top.
 Rotational symmetry number  1.
 Rotational temperatures (Kelvin)      0.44047     0.42190     0.21549
 Rotational constants (GHZ):           9.17787     8.79103     4.49014
 Zero-point vibrational energy     196709.3 (Joules/Mol)
                                   47.01466 (Kcal/Mol)
 Warning -- explicit consideration of   1 degrees of freedom as
           vibrations may cause significant error
 Vibrational temperatures:    575.94   949.63   986.03  1139.44  1272.00
          (Kelvin)           1348.80  1350.60  1366.50  1568.02  1612.07
                             1707.64  1741.49  1847.97  2068.32  2170.56
                             2291.51  2376.03  5117.34  5126.83  5166.00
                             5534.60

 Zero-point correction=                           0.074923 (Hartree/Particle)
 Thermal correction to Energy=                    0.078701
 Thermal correction to Enthalpy=                  0.079645
 Thermal correction to Gibbs Free Energy=         0.048522
 Sum of electronic and zero-point Energies=           -222.204485
 Sum of electronic and thermal Energies=              -222.200707
 Sum of electronic and thermal Enthalpies=            -222.199763
 Sum of electronic and thermal Free Energies=         -222.230886

                     E (Thermal)             CV                S
                      KCal/Mol        Cal/Mol-Kelvin    Cal/Mol-Kelvin
 Total                   49.385             13.101             65.504
 Electronic               0.000              0.000              0.000
 Translational            0.889              2.981             38.570
 Rotational               0.889              2.981             24.299
 Vibrational             47.608              7.139              2.635
 Vibration     1          0.766              1.469              0.962

 Optimization completed.
    -- Stationary point found.
 Normal termination of Gaussian 09 at Wed Feb  8 11:17:35 2012.
