 Gaussian 03, Revision C.02,
 Gaussian 03:  IA32L-G03RevC.02 12-Jun-2004

 ------------------------------
 #MP2=FULL/6-311G(d,p) opt freq
 ------------------------------

 -------------------------------------------------
 1H pyrazole C3H4N2 casno=288131 method=2 basis=21
 -------------------------------------------------
 Symbolic Z-matrix:
 Charge =  0 Multiplicity = 1

 SCF Done:  E(RHF) =  -224.796576514     A.U. after   14 cycles
 E2 =    -0.8428313029D+00 EUMP2 =    -0.22563940781708D+03
 SCF Done:  E(RHF) =  -224.842555031     A.U. after   13 cycles
 E2 =    -0.8540583931D+00 EUMP2 =    -0.22569661342370D+03
 SCF Done:  E(RHF) =  -224.844894748     A.U. after   13 cycles
 E2 =    -0.8634707299D+00 EUMP2 =    -0.22570836547827D+03
 SCF Done:  E(RHF) =  -224.845038706     A.U. after   10 cycles
 E2 =    -0.8634458032D+00 EUMP2 =    -0.22570848450959D+03
 SCF Done:  E(RHF) =  -224.845070984     A.U. after   11 cycles
 E2 =    -0.8634413790D+00 EUMP2 =    -0.22570851236350D+03
 SCF Done:  E(RHF) =  -224.845090695     A.U. after    8 cycles
 E2 =    -0.8634237390D+00 EUMP2 =    -0.22570851443412D+03
 Optimization completed.
    -- Stationary point found.
 Normal termination of Gaussian 03 at Wed Feb  9 11:42:50 2005.

 ----------------------------------------------------------------------
 #N Geom=AllCheck Guess=Read SCRF=Check GenChk RMP2(Full)/6-311G(d,p) F
 req
 ----------------------------------------------------------------------

 1H pyrazole C3H4N2 casno=288131 method=2 basis=21
 -------------------------------------------------
 Redundant internal coordinates taken from checkpoint file:
 /scratch/Gau-1685.chk
 Charge =  0 Multiplicity = 1

                         Standard orientation:
 ---------------------------------------------------------------------
 Center     Atomic     Atomic              Coordinates (Angstroms)
 Number     Number      Type              X           Y           Z
 ---------------------------------------------------------------------
    1          1             0        2.107193    0.731890    0.000000
    2          6             0        1.115506    0.305476    0.000000
    3          1             0        1.259654   -1.901102    0.000000
    4          6             0        0.659989   -1.004305    0.000000
    5          1             0       -1.486645   -1.677814    0.000000
    6          6             0       -0.743673   -0.893553    0.000000
    7          7             0       -1.146460    0.389863    0.000000
    8          1             0       -0.045919    2.090050    0.000000
    9          7             0        0.000000    1.083175    0.000000
 ---------------------------------------------------------------------

 SCF Done:  E(RHF) =  -224.845090695     A.U. after    1 cycles
 E2 =    -0.8634237372D+00 EUMP2 =    -0.22570851443233D+03

 The electronic state is 1-A'.
 Alpha  occ. eigenvalues --  -15.63812 -15.58212 -11.27818 -11.25050 -11.22220
 Alpha  occ. eigenvalues --   -1.37371  -1.09093  -1.05079  -0.82325  -0.79836
 Alpha  occ. eigenvalues --   -0.74082  -0.60731  -0.60360  -0.59088  -0.56119
 Alpha  occ. eigenvalues --   -0.45840  -0.36127  -0.34237
 Alpha virt. eigenvalues --    0.14997   0.16345   0.18517   0.19321   0.21372
 Alpha virt. eigenvalues --    0.22677   0.36947   0.37840   0.39943   0.42660
 Alpha virt. eigenvalues --    0.51566   0.57035   0.58430   0.59122   0.62400

 Mulliken atomic charges:
              1
     1  H    0.121991
     2  C    0.172172
     3  H    0.108355
     4  C   -0.366759
     5  H    0.109754
     6  C    0.138526
     7  N   -0.259115
     8  H    0.246667
     9  N   -0.271591
 Sum of Mulliken charges=   0.00000

 Dipole moment (field-independent basis, Debye):
    X=     2.3309    Y=     0.8055    Z=     0.0000  Tot=     2.4662
 Quadrupole moment (field-independent basis, Debye-Ang):
   XX=   -29.5630   YY=   -22.0297   ZZ=   -32.4853
   XY=     2.9128   XZ=     0.0000   YZ=     0.0000

  Exact polarizability:  47.969   2.093  48.710   0.000   0.000  21.691
 Approx polarizability:  46.128   0.605  48.150   0.000   0.000  23.943

                     1                      2                      3
                    A"                     A"                     A"
 Frequencies --   519.1819               627.7012               693.4531
 Red. masses --     1.9253                 3.0635                 2.6177
 Frc consts  --     0.3058                 0.7112                 0.7417
 IR Inten    --    45.0377                 0.0069                31.9650

                     4                      5                      6
                    A"                     A"                     A"
 Frequencies --   730.8981               815.6220               859.3569
 Red. masses --     1.2043                 1.1624                 1.2319
 Frc consts  --     0.3790                 0.4556                 0.5360
 IR Inten    --    75.6411                32.0552                 4.0641

                     7                      8                      9
                    A'                     A'                     A'
 Frequencies --   915.0436               935.2814              1064.7206
 Red. masses --     5.3866                 3.6308                 1.4386
 Frc consts  --     2.6574                 1.8712                 0.9609
 IR Inten    --     7.3598                 2.9864                10.5085

                    10                     11                     12
                    A'                     A'                     A'
 Frequencies --  1069.4276              1164.6048              1200.0057
 Red. masses --     1.4891                 1.7509                 3.4584
 Frc consts  --     1.0034                 1.3991                 2.9342
 IR Inten    --    31.8612                11.6382                 1.2136

                    13                     14                     15
                    A'                     A'                     A'
 Frequencies --  1294.5398              1384.2238              1457.3200
 Red. masses --     1.6579                 2.8794                 4.1996
 Frc consts  --     1.6369                 3.2507                 5.2550
 IR Inten    --     3.0919                 2.4377                11.3618

                    16                     17                     18
                    A'                     A'                     A'
 Frequencies --  1511.4126              1554.8168              3290.3719
 Red. masses --     3.0344                 2.8684                 1.0916
 Frc consts  --     4.0841                 4.0855                 6.9634
 IR Inten    --     4.9850                 4.3602                 1.8912

                    19                     20                     21
                    A'                     A'                     A'
 Frequencies --  3300.5878              3319.7868              3697.2719
 Red. masses --     1.0952                 1.1086                 1.0824
 Frc consts  --     7.0296                 7.1984                 8.7174
 IR Inten    --     1.0239                 0.2188                94.7663

 - Thermochemistry -
 -------------------
 Temperature   298.150 Kelvin.  Pressure   1.00000 Atm.
 Atom  1 has atomic number  1 and mass   1.00783

 Molecular mass:    68.03745 amu.
 Principal axes and moments of inertia in atomic units:
                           1         2         3
     EIGENVALUES --   187.30588 192.05460 379.36047
           X            0.86932   0.49425   0.00000
           Y           -0.49425   0.86932   0.00000
           Z            0.00000   0.00000   1.00000
 This molecule is an asymmetric top.
 Rotational symmetry number  1.
 Rotational temperatures (Kelvin)      0.46242     0.45099     0.22832
 Rotational constants (GHZ):           9.63526     9.39702     4.75733
 Zero-point vibrational energy     187847.4 (Joules/Mol)
                                   44.89660 (Kcal/Mol)
 Warning -- explicit consideration of   1 degrees of freedom as
           vibrations may cause significant error
 Vibrational temperatures:    746.99   903.12   997.72  1051.60  1173.50
          (Kelvin)           1236.42  1316.54  1345.66  1531.89  1538.67
                             1675.60  1726.54  1862.55  1991.59  2096.76
                             2174.58  2237.03  4734.11  4748.80  4776.43
                             5319.54

 Zero-point correction=                           0.071547 (Hartree/Particle)
 Thermal correction to Energy=                    0.075313
 Thermal correction to Enthalpy=                  0.076258
 Thermal correction to Gibbs Free Energy=         0.045268
 Sum of electronic and zero-point Energies=           -225.636967
 Sum of electronic and thermal Energies=              -225.633201
 Sum of electronic and thermal Enthalpies=            -225.632257
 Sum of electronic and thermal Free Energies=         -225.663247

                     E (Thermal)             CV                S
                      KCal/Mol        Cal/Mol-Kelvin    Cal/Mol-Kelvin
 Total                   47.260             13.408             65.224
 Electronic               0.000              0.000              0.000
 Translational            0.889              2.981             38.570
 Rotational               0.889              2.981             24.127
 Vibrational             45.482              7.447              2.527
 Vibration  1             0.874              1.208              0.612

 Optimization completed.
    -- Stationary point found.
 Normal termination of Gaussian 03 at Wed Feb  9 12:06:49 2005.
