 Gaussian 98, Revision A.7,
 Gaussian 98:  SGI64-G98RevA.7 11-Apr-1999

 --------------------------
 #MP2=FULL/6-31G** opt freq
 --------------------------

 -------------------------------
 1H pyrazole C3H4N2 casno=288131
 -------------------------------
 Symbolic Z-matrix:
 Charge =  0 Multiplicity = 1

 SCF Done:  E(RHF) =  -224.749542099     A.U. after   14 cycles
 E2 =    -0.7414851561D+00 EUMP2 =    -0.22549102725513D+03
 SCF Done:  E(RHF) =  -224.796787601     A.U. after   13 cycles
 E2 =    -0.7510952477D+00 EUMP2 =    -0.22554788284870D+03
 SCF Done:  E(RHF) =  -224.799820290     A.U. after   13 cycles
 E2 =    -0.7591943659D+00 EUMP2 =    -0.22555901465586D+03
 SCF Done:  E(RHF) =  -224.799863636     A.U. after   11 cycles
 E2 =    -0.7592977014D+00 EUMP2 =    -0.22555916133736D+03
 SCF Done:  E(RHF) =  -224.799819346     A.U. after   11 cycles
 E2 =    -0.7593757882D+00 EUMP2 =    -0.22555919513450D+03
 SCF Done:  E(RHF) =  -224.799851367     A.U. after    9 cycles
 E2 =    -0.7593465400D+00 EUMP2 =    -0.22555919790751D+03
 Optimization completed.
    -- Stationary point found.
 Normal termination of Gaussian 98.

 --------------------------------------------------------
 #N Geom=AllCheck Guess=TCheck RMP2(Full)/6-31G(d,p) Freq
 --------------------------------------------------------

 1H pyrazole C3H4N2 casno=288131
 -------------------------------
 Redundant internal coordinates taken from checkpointfile:
 /wrk/Gau-4744055.chk
 Charge =  0 Multiplicity = 1

                         Standard orientation:
 ---------------------------------------------------------------------
 Center     Atomic     Atomic              Coordinates (Angstroms)
 Number     Number      Type              X           Y           Z
 ---------------------------------------------------------------------
    1          1             0        2.102615    0.730479    0.000000
    2          6             0        1.114429    0.306470    0.000000
    3          1             0        1.260195   -1.891735    0.000000
    4          6             0        0.660664   -0.999877    0.000000
    5          1             0       -1.473459   -1.682685    0.000000
    6          6             0       -0.739377   -0.895759    0.000000
    7          7             0       -1.151146    0.386002    0.000000
    8          1             0       -0.045624    2.088904    0.000000
    9          7             0        0.000000    1.084002    0.000000
 ---------------------------------------------------------------------

 SCF Done:  E(RHF) =  -224.799851367     A.U. after    1 cycles
 E2 =    -0.7593465411D+00 EUMP2 =    -0.22555919790859D+03

  The electronic state is 1-A'.
 Alpha  occ. eigenvalues --  -15.64273 -15.58683 -11.27698 -11.24938 -11.22026
 Alpha  occ. eigenvalues --   -1.36732  -1.08797  -1.04753  -0.82111  -0.79415
 Alpha  occ. eigenvalues --   -0.73811  -0.60324  -0.59874  -0.58723  -0.55819
 Alpha  occ. eigenvalues --   -0.45425  -0.35761  -0.33847
 Alpha virt. eigenvalues --    0.17329   0.22600   0.24268   0.28067   0.30355
 Alpha virt. eigenvalues --    0.31546   0.40174   0.41150   0.45399   0.57861
 Alpha virt. eigenvalues --    0.65297   0.73764   0.77424   0.78148   0.82596

  Exact polarizability:  45.646   2.036  46.695   0.000   0.000  16.977
 Approx polarizability:  44.707   0.496  46.703   0.000   0.000  19.199

                     1                      2                      3
                    A"                     A"                     A"
 Frequencies --   539.9562               624.8091               700.6801
 Red. masses --     2.1876                 3.4803                 2.4061
 Frc consts  --     0.3758                 0.8005                 0.6960
 IR Inten    --    42.4487                 0.5562                36.2075
 Raman Activ --     0.0000                 0.0000                 0.0000

                     4                      5                      6
                    A"                     A"                     A"
 Frequencies --   734.1139               812.9093               851.8914
 Red. masses --     1.1840                 1.1296                 1.1883
 Frc consts  --     0.3760                 0.4398                 0.5081
 IR Inten    --    62.7961                26.6916                11.5685
 Raman Activ --     0.0000                 0.0000                 0.0000

                     7                      8                      9
                    A'                     A'                     A'
 Frequencies --   920.0314               942.4438              1082.6197
 Red. masses --     5.6774                 4.1323                 1.6212
 Frc consts  --     2.8314                 2.1625                 1.1196
 IR Inten    --     7.2644                 4.0370                24.0791
 Raman Activ --     0.0000                 0.0000                 0.0000

                    10                     11                     12
                    A'                     A'                     A'
 Frequencies --  1090.3181              1182.1513              1206.5619
 Red. masses --     1.4060                 1.8597                 2.7890
 Frc consts  --     0.9848                 1.5313                 2.3922
 IR Inten    --    13.3654                12.0091                 0.8181
 Raman Activ --     0.0000                 0.0000                 0.0000

                    13                     14                     15
                    A'                     A'                     A'
 Frequencies --  1311.0248              1405.8310              1492.9747
 Red. masses --     1.7663                 2.4342                 4.0526
 Frc consts  --     1.7887                 2.8344                 5.3222
 IR Inten    --     2.3391                 3.3147                11.5448
 Raman Activ --     0.0000                 0.0000                 0.0000

                    16                     17                     18
                    A'                     A'                     A'
 Frequencies --  1534.0219              1586.3985              3338.6949
 Red. masses --     2.7797                 3.0426                 1.0920
 Frc consts  --     3.8540                 4.5114                 7.1716
 IR Inten    --     6.5909                 5.3120                 2.6171
 Raman Activ --     0.0000                 0.0000                 0.0000

                    19                     20                     21
                    A'                     A'                     A'
 Frequencies --  3348.8617              3368.3080              3743.5870
 Red. masses --     1.0948                 1.1077                 1.0824
 Frc consts  --     7.2342                 7.4042                 8.9378
 IR Inten    --     1.4629                 0.2858                88.9829
 Raman Activ --     0.0000                 0.0000                 0.0000

 - Thermochemistry -
 -------------------
 Temperature   298.150 Kelvin.  Pressure   1.00000 Atm.
 Atom  1 has atomic number  1 and mass   1.00783

 Molecular mass:    68.03745 amu.
 Principal axes and moments of inertia in atomic units:
                           1         2         3
     EIGENVALUES --   187.15136 191.86405 379.01541
           X            0.89047   0.45504   0.00000
           Y           -0.45504   0.89047   0.00000
           Z            0.00000   0.00000   1.00000
 THIS MOLECULE IS AN ASYMMETRIC TOP.
 ROTATIONAL SYMMETRY NUMBER  1.
 ROTATIONAL TEMPERATURES (KELVIN)      0.46280     0.45143     0.22852
 ROTATIONAL CONSTANTS (GHZ)            9.64322     9.40635     4.76166
 Zero-point vibrational energy     190315.1 (Joules/Mol)
                                   45.48639 (Kcal/Mol)
 WARNING-- EXPLICIT CONSIDERATION OF   1 DEGREES OF FREEDOM AS
           VIBRATIONS MAY CAUSE SIGNIFICANT ERROR
 VIBRATIONAL TEMPERATURES:    776.87   898.96  1008.12  1056.22  1169.59
          (KELVIN)           1225.67  1323.71  1355.96  1557.64  1568.72
                             1700.84  1735.96  1886.26  2022.67  2148.05
                             2207.10  2282.46  4803.61  4818.24  4846.22
                             5386.16

 Zero-point correction=                           0.072487 (Hartree/Particle)
 Thermal correction to Energy=                    0.076228
 Thermal correction to Enthalpy=                  0.077172
 Thermal correction to Gibbs Free Energy=         0.046219
 Sum of electronic and zero-point Energies=           -225.486711
 Sum of electronic and thermal Energies=              -225.482970
 Sum of electronic and thermal Enthalpies=            -225.482026
 Sum of electronic and thermal Free Energies=         -225.512979

                     E (Thermal)             CV                S
                      KCAL/MOL        CAL/MOL-KELVIN    CAL/MOL-KELVIN
 TOTAL                   47.834             13.259             65.146
 ELECTRONIC               0.000              0.000              0.000
 TRANSLATIONAL            0.889              2.981             38.570
 ROTATIONAL               0.889              2.981             24.124
 VIBRATIONAL             46.056              7.297              2.451
 VIBRATION  1             0.895              1.162              0.565
                       Q            LOG10(Q)             LN(Q)
 TOTAL BOT       0.550513D-21        -21.259232        -48.951191
 TOTAL V=0       0.120873D+13         12.082329         27.820590
 VIB (BOT)       0.597605D-33        -33.223586        -76.500133
 VIB (BOT)  1    0.293436D+00         -0.532487         -1.226095
 VIB (V=0)       0.131212D+01          0.117975          0.271648
 VIB (V=0)  1    0.107975D+01          0.033321          0.076725
 ELECTRONIC      0.100000D+01          0.000000          0.000000
 TRANSLATIONAL   0.220588D+08          7.343582         16.909224
 ROTATIONAL      0.417610D+05          4.620771         10.639719
 ***** Axes restored to original set *****
 -------------------------------------------------------------------
 Center     Atomic                   Forces (Hartrees/Bohr)
 Number     Number              X              Y              Z
 -------------------------------------------------------------------
    1          1          -0.000039853    0.000000000   -0.000073411
    2          6          -0.000123964    0.000000000    0.000404159
    3          1           0.000007454    0.000000000   -0.000032259
    4          6           0.000037810    0.000000000   -0.000087355
    5          1           0.000065141    0.000000000    0.000047328
    6          6          -0.000340286    0.000000000    0.000315445
    7          7           0.000269558    0.000000000   -0.000079543
    8          1           0.000066764    0.000000000    0.000068523
    9          7           0.000057376    0.000000000   -0.000562888
 -------------------------------------------------------------------
 Cartesian Forces:  Max     0.000562888 RMS     0.000174897

 GradGradGradGradGradGradGradGradGradGradGradGradGradGradGradGradGradGrad
 Berny optimization.
 Internal  Forces:  Max     0.000366329 RMS     0.000096673
 Search for a local minimum.
 Step number   1 out of a maximum of  48
 All quantities printed in internal units (Hartrees-Bohrs-Radians)
 Second derivative matrix not updated -- analytic derivatives used.
     Eigenvalues ---    0.00737   0.01043   0.01519   0.02728   0.05652
     Eigenvalues ---    0.06061   0.09739   0.10773   0.11362   0.12183
     Eigenvalues ---    0.23048   0.28329   0.36480   0.38615   0.39469
     Eigenvalues ---    0.39669   0.40387   0.46146   0.49675   0.50867
     Eigenvalues ---    0.562441000.000001000.000001000.000001000.00000
     Eigenvalues --- 1000.000001000.000001000.000001000.000001000.00000
     Eigenvalues --- 1000.000001000.000001000.000001000.000001000.00000
     Eigenvalues --- 1000.000001000.000001000.00000
 Angle between quadratic step and forces=  31.80 degrees.
 Linear search not attempted -- first point.
 Iteration  1 RMS(Cart)=  0.00030080 RMS(Int)=  0.00000010
 Iteration  2 RMS(Cart)=  0.00000009 RMS(Int)=  0.00000000
 Variable       Old X    -DE/DX   Delta X   Delta X   Delta X     New X
                                 (Linear)    (Quad)   (Total)
    R1        2.03205   0.00007   0.00000   0.00017   0.00017   2.03221
    R2        2.61333   0.00005   0.00000   0.00028   0.00028   2.61361
    R3        2.56788  -0.00031   0.00000  -0.00077  -0.00077   2.56711
    R4        2.03077   0.00003   0.00000   0.00007   0.00007   2.03084
    R5        2.65300   0.00009   0.00000   0.00022   0.00022   2.65322
    R6        2.03366   0.00007   0.00000   0.00020   0.00020   2.03386
    R7        2.54410  -0.00037   0.00000  -0.00073  -0.00073   2.54336
    R8        2.54401   0.00005   0.00000   0.00023   0.00023   2.54424
    R9        1.90094   0.00000   0.00000   0.00000   0.00000   1.90094
    A1        2.31043   0.00000   0.00000  -0.00044  -0.00044   2.30999
    A2        2.12710   0.00010   0.00000   0.00055   0.00055   2.12765
    A3        1.84566  -0.00010   0.00000  -0.00011  -0.00011   1.84554
    A4        2.21543   0.00003   0.00000   0.00012   0.00012   2.21556
    A5        1.83088  -0.00006   0.00000  -0.00026  -0.00026   1.83062
    A6        2.23687   0.00003   0.00000   0.00014   0.00014   2.23701
    A7        2.24723   0.00001   0.00000   0.00004   0.00004   2.24728
    A8        1.95587   0.00007   0.00000   0.00028   0.00028   1.95614
    A9        2.08008  -0.00008   0.00000  -0.00032  -0.00032   2.07976
   A10        1.80503  -0.00009   0.00000  -0.00026  -0.00026   1.80477
   A11        1.98734   0.00017   0.00000   0.00036   0.00036   1.98770
   A12        2.22534   0.00001   0.00000   0.00059   0.00059   2.22593
   A13        2.07050  -0.00017   0.00000  -0.00095  -0.00095   2.06955
    D1        0.00000   0.00000   0.00000   0.00000   0.00000   0.00000
    D2        3.14159   0.00000   0.00000   0.00000   0.00000   3.14159
    D3        3.14159   0.00000   0.00000   0.00000   0.00000   3.14159
    D4        0.00000   0.00000   0.00000   0.00000   0.00000   0.00000
    D5        3.14159   0.00000   0.00000   0.00000   0.00000   3.14159
    D6        0.00000   0.00000   0.00000   0.00000   0.00000   0.00000
    D7        0.00000   0.00000   0.00000   0.00000   0.00000   0.00000
    D8        3.14159   0.00000   0.00000   0.00000   0.00000   3.14159
    D9        3.14159   0.00000   0.00000   0.00000   0.00000   3.14159
   D10        0.00000   0.00000   0.00000   0.00000   0.00000   0.00000
   D11        0.00000   0.00000   0.00000   0.00000   0.00000   0.00000
   D12        3.14159   0.00000   0.00000   0.00000   0.00000   3.14159
   D13        0.00000   0.00000   0.00000   0.00000   0.00000   0.00000
   D14        3.14159   0.00000   0.00000   0.00000   0.00000   3.14159
   D15        0.00000   0.00000   0.00000   0.00000   0.00000   0.00000
   D16        3.14159   0.00000   0.00000   0.00000   0.00000   3.14159
         Item               Value     Threshold  Converged?
 Maximum Force            0.000366     0.000450     YES
 RMS     Force            0.000097     0.000300     YES
 Maximum Displacement     0.001108     0.001800     YES
 RMS     Displacement     0.000301     0.001200     YES
 Predicted change in Energy=-4.828675D-07
 Optimization completed.
    -- Stationary point found.
                         ----------------------------
                         !   Optimized Parameters   !
                         ! (Angstroms and Degrees)  !
 ------------------------                            -------------------------
 ! Name  Definition              Value          Derivative Info.             !
 -----------------------------------------------------------------------------
 ! R1    R(1,2)                  1.0753         -DE/DX =    0.0001           !
 ! R2    R(2,4)                  1.3829         -DE/DX =    0.0001           !
 ! R3    R(2,9)                  1.3589         -DE/DX =   -0.0003           !
 ! R4    R(3,4)                  1.0746         -DE/DX =    0.               !
 ! R5    R(4,6)                  1.4039         -DE/DX =    0.0001           !
 ! R6    R(5,6)                  1.0762         -DE/DX =    0.0001           !
 ! R7    R(6,7)                  1.3463         -DE/DX =   -0.0004           !
 ! R8    R(7,9)                  1.3462         -DE/DX =    0.               !
 ! R9    R(8,9)                  1.0059         -DE/DX =    0.               !
 ! A1    A(1,2,4)              132.3779         -DE/DX =    0.               !
 ! A2    A(1,2,9)              121.8736         -DE/DX =    0.0001           !
 ! A3    A(4,2,9)              105.7485         -DE/DX =   -0.0001           !
 ! A4    A(2,4,3)              126.9351         -DE/DX =    0.               !
 ! A5    A(2,4,6)              104.9017         -DE/DX =   -0.0001           !
 ! A6    A(3,4,6)              128.1632         -DE/DX =    0.               !
 ! A7    A(4,6,5)              128.757          -DE/DX =    0.               !
 ! A8    A(4,6,7)              112.0629         -DE/DX =    0.0001           !
 ! A9    A(5,6,7)              119.18           -DE/DX =   -0.0001           !
 ! A10   A(6,7,9)              103.4209         -DE/DX =   -0.0001           !
 ! A11   A(2,9,7)              113.866          -DE/DX =    0.0002           !
 ! A12   A(2,9,8)              127.5028         -DE/DX =    0.               !
 ! A13   A(7,9,8)              118.6311         -DE/DX =   -0.0002           !
 ! D1    D(1,2,4,3)              0.             -DE/DX =    0.               !
 ! D2    D(1,2,4,6)            180.             -DE/DX =    0.               !
 ! D3    D(9,2,4,3)            180.             -DE/DX =    0.               !
 ! D4    D(9,2,4,6)              0.             -DE/DX =    0.               !
 ! D5    D(1,2,9,7)            180.             -DE/DX =    0.               !
 ! D6    D(1,2,9,8)              0.             -DE/DX =    0.               !
 ! D7    D(4,2,9,7)              0.             -DE/DX =    0.               !
 ! D8    D(4,2,9,8)            180.             -DE/DX =    0.               !
 ! D9    D(2,4,6,5)            180.             -DE/DX =    0.               !
 ! D10   D(2,4,6,7)              0.             -DE/DX =    0.               !
 ! D11   D(3,4,6,5)              0.             -DE/DX =    0.               !
 ! D12   D(3,4,6,7)            180.             -DE/DX =    0.               !
 ! D13   D(4,6,7,9)              0.             -DE/DX =    0.               !
 ! D14   D(5,6,7,9)            180.             -DE/DX =    0.               !
 ! D15   D(6,7,9,2)              0.             -DE/DX =    0.               !
 ! D16   D(6,7,9,8)            180.             -DE/DX =    0.               !
 -----------------------------------------------------------------------------
 GradGradGradGradGradGradGradGradGradGradGradGradGradGradGradGradGradGrad

 1\1\ NATIONAL INSTITUTE OF STANDARDS AND TECHNOLOGY-NEVA\Freq\RMP2-FU\
 6-31G(d,p)\C3H4N2\RDJ3\14-Aug-2001\0\\#N GEOM=ALLCHECK GUESS=TCHECK RM
 P2(FULL)/6-31G(D,P) FREQ\\1H pyrazole C3H4N2 casno=288131\\0,1\H,-1.89
 17178433,0.,-1.1730276019\C,-0.9399694777,0.,-0.672556686\H,0.67558926
 37,0.,-2.1703300681\C,0.3604921992,0.,-1.1429247266\H,2.2350285346,0.,
 0.0846012973\C,1.161447223,0.,0.0100822865\N,0.4252450985,0.,1.1372340
 413\H,-1.5937382462,0.,1.3511469048\N,-0.8419567237,0.,0.6827665622\\V
 ersion=SGI64-G98RevA.7\State=1-A'\HF=-224.7998514\MP2=-225.5591979\RMS
 D=1.616e-09\RMSF=1.749e-04\Dipole=-0.8173466,0.,-0.4157693\DipoleDeriv
 =-0.0024786,0.,-0.039642,0.,0.1805704,0.,-0.0268982,0.,0.068849,0.0816
 031,0.,-0.1266782,0.,-0.1037631,0.,-0.2426185,0.,0.2152546,0.0896797,0
 .,0.0264518,0.,0.1549486,0.,0.0300354,0.,-0.020429,-0.1914256,0.,0.038
 057,0.,-0.1862798,0.,-0.0625068,0.,-0.01924,-0.042936,0.,-0.0089827,0.
 ,0.1396882,0.,-0.0209658,0.,0.0724607,0.1847151,0.,0.0921357,0.,-0.076
 8469,0.,0.1978711,0.,0.1019057,0.0272648,0.,-0.1315568,0.,-0.2352275,0
 .,-0.0925356,0.,-0.4655812,0.2220312,0.,-0.0542959,0.,0.3219924,0.,-0.
 0436,0.,0.2321437,-0.3684537,0.,0.2045111,0.,-0.1950823,0.,0.2612183,0
 .,-0.1853635\Polar=48.2709147,0.,16.9768691,-0.0925757,0.,44.0703394\P
 G=CS [SG(C3H4N2)]\NImag=0\\0.31955050,0.,0.01864458,0.14120370,0.,0.12
 801138,-0.31530678,0.,-0.12262199,0.88356157,0.,-0.01931474,0.,0.,0.09
 953484,-0.13277369,0.,-0.12617870,0.09009294,0.,0.68699719,0.00045567,
 0.,-0.00082231,0.00248444,0.,0.02682526,0.08013014,0.,-0.00212588,0.,0
 .,-0.00460862,0.,0.,0.02156258,0.00036233,0.,-0.00005156,-0.00457667,0
 .,0.00021414,-0.09775606,0.,0.36547242,-0.00666862,0.,0.01001324,-0.35
 810959,0.,0.09615793,-0.08785670,0.,0.09189881,0.65906670,0.,-0.002361
 56,0.,0.,-0.04951368,0.,0.,-0.02289315,0.,0.,0.10050791,-0.01586465,0.
 ,0.01339399,0.10511444,0.,-0.14280760,0.08921478,0.,-0.35352256,-0.112
 02335,0.,0.87033406,-0.00018506,0.,0.00031548,-0.00046092,0.,-0.001015
 23,-0.00003072,0.,-0.00029207,-0.00471525,0.,0.00454656,0.39075701,0.,
 0.00099736,0.,0.,0.00548620,0.,0.,-0.00154549,0.,0.,-0.00194244,0.,0.,
 0.02347806,-0.00114160,0.,0.00123336,-0.00308913,0.,-0.00616580,0.0008
 8679,0.,0.00038638,-0.02331268,0.,0.00699066,0.02254929,0.,0.05854368,
 -0.00452445,0.,0.00509257,-0.05436254,0.,-0.00253787,0.01364858,0.,0.0
 1324670,-0.19354000,0.,-0.11983089,-0.37220287,0.,-0.03350181,0.902651
 82,0.,0.00539084,0.,0.,0.00511217,0.,0.,-0.00542213,0.,0.,-0.05295660,
 0.,0.,-0.02640100,0.,0.,0.12425280,0.00100724,0.,-0.00253810,-0.064545
 69,0.,0.01910578,-0.01633120,0.,-0.00927677,-0.09712025,0.,-0.25610271
 ,-0.02483616,0.,-0.06284272,0.02018703,0.,0.62440656,0.00075129,0.,0.0
 0012510,-0.05702528,0.,-0.04271966,-0.00216114,0.,-0.00119525,0.024090
 07,0.,0.03156677,-0.01231867,0.,0.02900822,-0.17636996,0.,0.14368448,0
 .53547592,0.,0.00702491,0.,0.,0.01755808,0.,0.,0.00749888,0.,0.,0.0167
 5545,0.,0.,-0.00890099,0.,0.,-0.06775038,0.,0.,0.10303994,0.00261631,0
 .,-0.00592030,-0.02253860,0.,-0.05193989,-0.00647592,0.,-0.00369691,-0
 .02371758,0.,-0.07661888,-0.00347150,0.,0.00619901,0.08977153,0.,-0.28
 664318,-0.02701316,0.,0.54185385,-0.00028003,0.,0.00042904,0.00975693,
 0.,-0.00659274,0.00081367,0.,-0.00007989,0.00231085,0.,-0.00330551,-0.
 00041959,0.,0.00157656,-0.00759021,0.,-0.00628179,-0.02106880,0.,0.025
 78492,0.30697670,0.,-0.00132386,0.,0.,-0.00891820,0.,0.,0.00234923,0.,
 0.,0.00349634,0.,0.,0.00244643,0.,0.,0.00477998,0.,0.,-0.01326514,0.,0
 .,0.01378416,-0.00051836,0.,0.00034358,0.02655021,0.,-0.00472132,0.001
 35163,0.,0.00021040,-0.00284145,0.,-0.00750383,-0.00056969,0.,0.001075
 36,-0.00641912,0.,0.00136478,-0.01361629,0.,0.01468888,-0.21377227,0.,
 0.25830908,0.00620749,0.,-0.03373482,-0.11053783,0.,-0.02743695,-0.007
 48394,0.,-0.00160789,-0.03457746,0.,0.02058184,-0.00042392,0.,0.007024
 35,-0.10771038,0.,0.04423634,-0.29137342,0.,-0.03495599,-0.29049952,0.
 ,0.20983533,0.83639899,0.,-0.00693165,0.,0.,-0.04533606,0.,0.,0.005184
 58,0.,0.,0.00890772,0.,0.,0.00638186,0.,0.,0.01299431,0.,0.,-0.0619607
 4,0.,0.,-0.00334894,0.,0.,0.08410892,0.00510872,0.,-0.00829366,-0.0043
 8551,0.,-0.37450380,0.00310704,0.,0.00026445,0.06094532,0.,-0.05416313
 ,0.00277331,0.,-0.00541994,0.03399186,0.,-0.02747364,-0.11984020,0.,-0
 .13792259,0.20224168,0.,-0.26376693,-0.18394221,0.,0.87127925\\0.00003
 985,0.,0.00007341,0.00012396,0.,-0.00040416,-0.00000745,0.,0.00003226,
 -0.00003781,0.,0.00008735,-0.00006514,0.,-0.00004733,0.00034029,0.,-0.
 00031545,-0.00026956,0.,0.00007954,-0.00006676,0.,-0.00006852,-0.00005
 738,0.,0.00056289\\\@

 ABOVE ALL I AM AN OPTIMIST FOR NUMBER THEORY,
 AND I HOLD THE HOPE THAT WE MAY NOT BE FAR FROM
 A TIME WHEN IRREFUTABLE ARITHMETIC WILL CELEBRATE
 ITS TRIUMPHS IN PHYSICS AND CHEMISTRY.
   -- HERMANN MINKOWSKI, 1905
 Job cpu time:  0 days  0 hours 41 minutes 46.7 seconds.
 File lengths (MBytes):  RWF=  566 Int=    0 D2E=    0 Chk=    5 Scr=    1
 Normal termination of Gaussian 98.
