 Gaussian 98, Revision A.4,
 Gaussian 98:  IBM-RS6000-G98RevA.4 11-Sep-1998

 ---------------------------
 #MP2=FULL/6-31+G** opt freq
 ---------------------------

 -------------------------------
 1H pyrazole C3H4N2 casno=288131
 -------------------------------
 Symbolic Z-matrix:
 Charge =  0 Multiplicity = 1

 SCF Done:  E(RHF) =  -224.757188899     A.U. after   14 cycles
 E2 =    -0.7486661897D+00 EUMP2 =    -0.22550585508854D+03
 SCF Done:  E(RHF) =  -224.804893791     A.U. after   13 cycles
 E2 =    -0.7587749697D+00 EUMP2 =    -0.22556366876028D+03
 SCF Done:  E(RHF) =  -224.807798874     A.U. after   13 cycles
 E2 =    -0.7675416700D+00 EUMP2 =    -0.22557534054407D+03
 SCF Done:  E(RHF) =  -224.807815327     A.U. after   11 cycles
 E2 =    -0.7676840490D+00 EUMP2 =    -0.22557549937636D+03
 SCF Done:  E(RHF) =  -224.807755444     A.U. after   12 cycles
 E2 =    -0.7677836778D+00 EUMP2 =    -0.22557553912142D+03
 SCF Done:  E(RHF) =  -224.807783529     A.U. after   10 cycles
 E2 =    -0.7677584449D+00 EUMP2 =    -0.22557554197426D+03
 Optimization completed.
    -- Stationary point found.
 Normal termination of Gaussian 98.

 ---------------------------------------------------------
 #N Geom=AllCheck Guess=TCheck RMP2(Full)/6-31+G(d,p) Freq
 ---------------------------------------------------------

 1H pyrazole C3H4N2 casno=288131
 -------------------------------
 Redundant internal coordinates taken from checkpointfile:
 /wrk/rdj3/Gau-4034.chk
 Charge =  0 Multiplicity = 1

                         Standard orientation:
 ---------------------------------------------------------------------
 Center     Atomic     Atomic              Coordinates (Angstroms)
 Number     Number      Type              X           Y           Z
 ---------------------------------------------------------------------
    1          1             0        2.104305    0.731941    0.000000
    2          6             0        1.115523    0.307677    0.000000
    3          1             0        1.261923   -1.893741    0.000000
    4          6             0        0.661386   -1.001476    0.000000
    5          1             0       -1.477391   -1.683857    0.000000
    6          6             0       -0.740883   -0.898938    0.000000
    7          7             0       -1.151035    0.385859    0.000000
    8          1             0       -0.047752    2.092974    0.000000
    9          7             0        0.000000    1.086870    0.000000
 ---------------------------------------------------------------------

 SCF Done:  E(RHF) =  -224.807783529     A.U. after    1 cycles
 E2 =    -0.7677584469D+00 EUMP2 =    -0.22557554197627D+03

  The electronic state is 1-A'.
 Alpha  occ. eigenvalues --  -15.65316 -15.59976 -11.28723 -11.25984 -11.23094
 Alpha  occ. eigenvalues --   -1.37652  -1.09687  -1.05623  -0.82938  -0.80286
 Alpha  occ. eigenvalues --   -0.74579  -0.61230  -0.60550  -0.59532  -0.56699
 Alpha  occ. eigenvalues --   -0.46236  -0.36495  -0.34603
 Alpha virt. eigenvalues --    0.06348   0.08363   0.09221   0.11281   0.11283
 Alpha virt. eigenvalues --    0.12261   0.12845   0.15081   0.16404   0.17696
 Alpha virt. eigenvalues --    0.18924   0.19359   0.22018   0.23354   0.24179

  Exact polarizability:  53.176   1.010  52.167   0.000   0.000  31.234
 Approx polarizability:  48.218   0.280  49.765   0.000   0.000  30.157

                     1                      2                      3
                    A"                     A"                     A"
 Frequencies --   501.1547               600.1212               680.3967
 Red. masses --     2.2244                 3.7382                 2.4453
 Frc consts  --     0.3292                 0.7932                 0.6670
 IR Inten    --    41.7326                 0.8730                30.0454
 Raman Activ --     0.0000                 0.0000                 0.0000

                     4                      5                      6
                    A"                     A"                     A"
 Frequencies --   718.0840               786.4292               826.9309
 Red. masses --     1.1824                 1.1050                 1.1697
 Frc consts  --     0.3592                 0.4026                 0.4713
 IR Inten    --    93.0613                24.1674                27.8852
 Raman Activ --     0.0000                 0.0000                 0.0000

                     7                      8                      9
                    A'                     A'                     A'
 Frequencies --   916.7240               937.7629              1075.4130
 Red. masses --     5.6639                 4.1704                 1.6360
 Frc consts  --     2.8044                 2.1608                 1.1148
 IR Inten    --     6.7421                 2.1925                30.1099
 Raman Activ --     0.0000                 0.0000                 0.0000

                    10                     11                     12
                    A'                     A'                     A'
 Frequencies --  1082.0534              1173.9955              1197.9864
 Red. masses --     1.4026                 1.9128                 2.7462
 Frc consts  --     0.9676                 1.5533                 2.3221
 IR Inten    --    13.2054                14.4324                 1.1655
 Raman Activ --     0.0000                 0.0000                 0.0000

                    13                     14                     15
                    A'                     A'                     A'
 Frequencies --  1305.2398              1395.0952              1480.6813
 Red. masses --     1.8004                 2.4072                 3.9913
 Frc consts  --     1.8072                 2.7604                 5.1557
 IR Inten    --     2.0925                 4.1026                10.9915
 Raman Activ --     0.0000                 0.0000                 0.0000

                    16                     17                     18
                    A'                     A'                     A'
 Frequencies --  1519.7272              1571.1780              3334.9794
 Red. masses --     2.7522                 2.9150                 1.0906
 Frc consts  --     3.7451                 4.2397                 7.1469
 IR Inten    --     7.4918                 5.5360                 0.9943
 Raman Activ --     0.0000                 0.0000                 0.0000

                    19                     20                     21
                    A'                     A'                     A'
 Frequencies --  3343.5853              3360.6278              3729.8231
 Red. masses --     1.0962                 1.1079                 1.0828
 Frc consts  --     7.2205                 7.3721                 8.8755
 IR Inten    --     1.1118                 0.1149               101.2107
 Raman Activ --     0.0000                 0.0000                 0.0000

 - Thermochemistry -
 -------------------
 Temperature   298.150 Kelvin.  Pressure   1.00000 Atm.
 Atom  1 has atomic number  1 and mass   1.00783

 Molecular mass:    68.03745 amu.
 Principal axes and moments of inertia in atomic units:
                           1         2         3
     EIGENVALUES --   188.01107 192.14656 380.15764
           X            0.87823   0.47825   0.00000
           Y           -0.47825   0.87823   0.00000
           Z            0.00000   0.00000   1.00000
 THIS MOLECULE IS AN ASYMMETRIC TOP.
 ROTATIONAL SYMMETRY NUMBER  1.
 ROTATIONAL TEMPERATURES (KELVIN)      0.46068     0.45077     0.22784
 ROTATIONAL CONSTANTS (GHZ)            9.59912     9.39252     4.74735
 Zero-point vibrational energy     188639.1 (Joules/Mol)
                                   45.08582 (Kcal/Mol)
 WARNING-- EXPLICIT CONSIDERATION OF   2 DEGREES OF FREEDOM AS
           VIBRATIONS MAY CAUSE SIGNIFICANT ERROR
 VIBRATIONAL TEMPERATURES:    721.05   863.44   978.93  1033.16  1131.49
          (KELVIN)           1189.76  1318.95  1349.22  1547.27  1556.82
                             1689.11  1723.63  1877.94  2007.22  2130.36
                             2186.54  2260.56  4798.26  4810.65  4835.17
                             5366.35

 Zero-point correction=                           0.071849 (Hartree/Particle)
 Thermal correction to Energy=                    0.075664
 Thermal correction to Enthalpy=                  0.076608
 Thermal correction to Gibbs Free Energy=         0.045543
 Sum of electronic and zero-point Energies=           -225.503693
 Sum of electronic and thermal Energies=              -225.499878
 Sum of electronic and thermal Enthalpies=            -225.498934
 Sum of electronic and thermal Free Energies=         -225.529999

                     E (Thermal)             CV                S
                      KCAL/MOL        CAL/MOL-KELVIN    CAL/MOL-KELVIN
 TOTAL                   47.480             13.599             65.381
 ELECTRONIC               0.000              0.000              0.000
 TRANSLATIONAL            0.889              2.981             38.570
 ROTATIONAL               0.889              2.981             24.133
 VIBRATIONAL             45.702              7.638              2.677
 VIBRATION  1             0.857              1.247              0.655
 VIBRATION  2             0.958              1.032              0.449
                       Q            LOG10(Q)             LN(Q)
 TOTAL BOT       0.112644D-20        -20.948294        -48.235229
 TOTAL V=0       0.125792D+13         12.099652         27.860478
 VIB (BOT)       0.121726D-32        -32.914615        -75.788703
 VIB (BOT)  1    0.327615D+00         -0.484636         -1.115917
 VIB (BOT)  2    0.248787D+00         -0.604173         -1.391159
 VIB (V=0)       0.135935D+01          0.133330          0.307004
 VIB (V=0)  1    0.109777D+01          0.040512          0.093283
 VIB (V=0)  2    0.105848D+01          0.024681          0.056830
 ELECTRONIC      0.100000D+01          0.000000          0.000000
 TRANSLATIONAL   0.220588D+08          7.343582         16.909224
 ROTATIONAL      0.419507D+05          4.622739         10.644250
 ***** Axes restored to original set *****
 -------------------------------------------------------------------
 Center     Atomic                   Forces (Hartrees/Bohr)
 Number     Number              X              Y              Z
 -------------------------------------------------------------------
    1          1          -0.000051565    0.000000000   -0.000071405
    2          6          -0.000105704    0.000000000    0.000458058
    3          1           0.000017895    0.000000000   -0.000034848
    4          6           0.000044574    0.000000000   -0.000047199
    5          1           0.000082903    0.000000000    0.000044804
    6          6          -0.000316713    0.000000000    0.000323533
    7          7           0.000330236    0.000000000   -0.000146707
    8          1           0.000069956    0.000000000    0.000073322
    9          7          -0.000071583    0.000000000   -0.000599559
 -------------------------------------------------------------------
 Cartesian Forces:  Max     0.000599559 RMS     0.000187952

 GradGradGradGradGradGradGradGradGradGradGradGradGradGradGradGradGradGrad
 Berny optimization.
 Internal  Forces:  Max     0.000394614 RMS     0.000101497
 Search for a local minimum.
 Step number   1 out of a maximum of  48
 All quantities printed in internal units (Hartrees-Bohrs-Radians)
 Second derivative matrix not updated -- analytic derivatives used.
     Eigenvalues ---    0.00645   0.00959   0.01429   0.02607   0.05266
     Eigenvalues ---    0.05725   0.09615   0.10659   0.11261   0.12079
     Eigenvalues ---    0.23049   0.28075   0.35912   0.38243   0.39338
     Eigenvalues ---    0.39430   0.39929   0.45375   0.49122   0.50063
     Eigenvalues ---    0.553671000.000001000.000001000.000001000.00000
     Eigenvalues --- 1000.000001000.000001000.000001000.000001000.00000
     Eigenvalues --- 1000.000001000.000001000.000001000.000001000.00000
     Eigenvalues --- 1000.000001000.000001000.00000
 Angle between quadratic step and forces=  33.06 degrees.
 Linear search not attempted -- first point.
 Iteration  1 RMS(Cart)=  0.00030168 RMS(Int)=  0.00000013
 Iteration  2 RMS(Cart)=  0.00000012 RMS(Int)=  0.00000000
 Variable       Old X    -DE/DX   Delta X   Delta X   Delta X     New X
                                 (Linear)    (Quad)   (Total)
    R1        2.03327   0.00008   0.00000   0.00019   0.00019   2.03346
    R2        2.61856   0.00009   0.00000   0.00032   0.00032   2.61888
    R3        2.57137  -0.00036   0.00000  -0.00088  -0.00088   2.57049
    R4        2.03247   0.00004   0.00000   0.00009   0.00009   2.03256
    R5        2.65698   0.00007   0.00000   0.00019   0.00019   2.65717
    R6        2.03402   0.00009   0.00000   0.00024   0.00024   2.03426
    R7        2.54863  -0.00039   0.00000  -0.00083  -0.00083   2.54780
    R8        2.54678   0.00012   0.00000   0.00042   0.00042   2.54720
    R9        1.90340   0.00000   0.00000  -0.00001  -0.00001   1.90339
    A1        2.31002   0.00000   0.00000  -0.00045  -0.00045   2.30957
    A2        2.12656   0.00008   0.00000   0.00052   0.00052   2.12707
    A3        1.84661  -0.00009   0.00000  -0.00007  -0.00007   1.84654
    A4        2.21528   0.00002   0.00000   0.00015   0.00015   2.21543
    A5        1.83171  -0.00003   0.00000  -0.00021  -0.00021   1.83150
    A6        2.23620   0.00001   0.00000   0.00006   0.00006   2.23625
    A7        2.25139   0.00002   0.00000   0.00007   0.00007   2.25146
    A8        1.95280   0.00003   0.00000   0.00019   0.00019   1.95298
    A9        2.07899  -0.00006   0.00000  -0.00025  -0.00025   2.07874
   A10        1.80882  -0.00004   0.00000  -0.00014  -0.00014   1.80868
   A11        1.98484   0.00012   0.00000   0.00023   0.00023   1.98507
   A12        2.22794   0.00004   0.00000   0.00077   0.00077   2.22871
   A13        2.07040  -0.00016   0.00000  -0.00100  -0.00100   2.06940
    D1        0.00000   0.00000   0.00000   0.00000   0.00000   0.00000
    D2        3.14159   0.00000   0.00000   0.00000   0.00000   3.14159
    D3        3.14159   0.00000   0.00000   0.00000   0.00000   3.14159
    D4        0.00000   0.00000   0.00000   0.00000   0.00000   0.00000
    D5        3.14159   0.00000   0.00000   0.00000   0.00000   3.14159
    D6        0.00000   0.00000   0.00000   0.00000   0.00000   0.00000
    D7        0.00000   0.00000   0.00000   0.00000   0.00000   0.00000
    D8        3.14159   0.00000   0.00000   0.00000   0.00000   3.14159
    D9        3.14159   0.00000   0.00000   0.00000   0.00000   3.14159
   D10        0.00000   0.00000   0.00000   0.00000   0.00000   0.00000
   D11        0.00000   0.00000   0.00000   0.00000   0.00000   0.00000
   D12        3.14159   0.00000   0.00000   0.00000   0.00000   3.14159
   D13        0.00000   0.00000   0.00000   0.00000   0.00000   0.00000
   D14        3.14159   0.00000   0.00000   0.00000   0.00000   3.14159
   D15        0.00000   0.00000   0.00000   0.00000   0.00000   0.00000
   D16        3.14159   0.00000   0.00000   0.00000   0.00000   3.14159
         Item               Value     Threshold  Converged?
 Maximum Force            0.000395     0.000450     YES
 RMS     Force            0.000101     0.000300     YES
 Maximum Displacement     0.001064     0.001800     YES
 RMS     Displacement     0.000302     0.001200     YES
 Predicted change in Energy=-5.378515D-07
 Optimization completed.
    -- Stationary point found.
                         ----------------------------
                         !   Optimized Parameters   !
                         ! (Angstroms and Degrees)  !
 ------------------------                            -------------------------
 ! Name  Definition              Value          Derivative Info.             !
 -----------------------------------------------------------------------------
 ! R1    R(1,2)                  1.076          -DE/DX =    0.0001           !
 ! R2    R(2,4)                  1.3857         -DE/DX =    0.0001           !
 ! R3    R(2,9)                  1.3607         -DE/DX =   -0.0004           !
 ! R4    R(3,4)                  1.0755         -DE/DX =    0.               !
 ! R5    R(4,6)                  1.406          -DE/DX =    0.0001           !
 ! R6    R(5,6)                  1.0764         -DE/DX =    0.0001           !
 ! R7    R(6,7)                  1.3487         -DE/DX =   -0.0004           !
 ! R8    R(7,9)                  1.3477         -DE/DX =    0.0001           !
 ! R9    R(8,9)                  1.0072         -DE/DX =    0.               !
 ! A1    A(1,2,4)              132.3544         -DE/DX =    0.               !
 ! A2    A(1,2,9)              121.8427         -DE/DX =    0.0001           !
 ! A3    A(4,2,9)              105.8029         -DE/DX =   -0.0001           !
 ! A4    A(2,4,3)              126.9262         -DE/DX =    0.               !
 ! A5    A(2,4,6)              104.9492         -DE/DX =    0.               !
 ! A6    A(3,4,6)              128.1246         -DE/DX =    0.               !
 ! A7    A(4,6,5)              128.9953         -DE/DX =    0.               !
 ! A8    A(4,6,7)              111.8871         -DE/DX =    0.               !
 ! A9    A(5,6,7)              119.1176         -DE/DX =   -0.0001           !
 ! A10   A(6,7,9)              103.6376         -DE/DX =    0.               !
 ! A11   A(2,9,7)              113.7232         -DE/DX =    0.0001           !
 ! A12   A(2,9,8)              127.6516         -DE/DX =    0.               !
 ! A13   A(7,9,8)              118.6252         -DE/DX =   -0.0002           !
 ! D1    D(1,2,4,3)              0.             -DE/DX =    0.               !
 ! D2    D(1,2,4,6)            180.             -DE/DX =    0.               !
 ! D3    D(9,2,4,3)            180.             -DE/DX =    0.               !
 ! D4    D(9,2,4,6)              0.             -DE/DX =    0.               !
 ! D5    D(1,2,9,7)            180.             -DE/DX =    0.               !
 ! D6    D(1,2,9,8)              0.             -DE/DX =    0.               !
 ! D7    D(4,2,9,7)              0.             -DE/DX =    0.               !
 ! D8    D(4,2,9,8)            180.             -DE/DX =    0.               !
 ! D9    D(2,4,6,5)            180.             -DE/DX =    0.               !
 ! D10   D(2,4,6,7)              0.             -DE/DX =    0.               !
 ! D11   D(3,4,6,5)              0.             -DE/DX =    0.               !
 ! D12   D(3,4,6,7)            180.             -DE/DX =    0.               !
 ! D13   D(4,6,7,9)              0.             -DE/DX =    0.               !
 ! D14   D(5,6,7,9)            180.             -DE/DX =    0.               !
 ! D15   D(6,7,9,2)              0.             -DE/DX =    0.               !
 ! D16   D(6,7,9,8)            180.             -DE/DX =    0.               !
 -----------------------------------------------------------------------------
 GradGradGradGradGradGradGradGradGradGradGradGradGradGradGradGradGradGrad

 1\1\GINC-FERRUM\Freq\RMP2-FU\6-31+G(d,p)\C3H4N2\RDJ3\17-Apr-2000\0\\#N
  GEOM=ALLCHECK GUESS=TCHECK RMP2(FULL)/6-31+G(D,P) FREQ\\1H pyrazole C
 3H4N2 casno=288131\\0,1\H,-1.8937577046,0.,-1.1736766372\C,-0.94150499
 95,0.,-0.6727749257\H,0.6763541975,0.,-2.1728430123\C,0.3614347856,0.,
 -1.1444428971\H,2.2384033337,0.,0.0872216638\C,1.1648638943,0.,0.00940
 78964\N,0.4251315141,0.,1.1371153625\H,-1.5957435222,0.,1.3551461798\N
 ,-0.8442769978,0.,0.6844576895\\Version=IBM-RS6000-G98RevA.4\State=1-A
 '\HF=-224.8077835\MP2=-225.575542\RMSD=1.016e-09\RMSF=1.880e-04\Dipole
 =-0.8356123,0.,-0.4848644\DipoleDeriv=0.0033474,0.,-0.0377309,0.,0.215
 1898,0.,-0.0286242,0.,0.0690339,0.075129,0.,-0.1977187,0.,-0.1466526,0
 .,-0.2852853,0.,0.2353402,0.0947105,0.,0.0254874,0.,0.1932144,0.,0.028
 8552,0.,-0.0211184,-0.1712037,0.,0.0594471,0.,-0.2192439,0.,-0.0451015
 ,0.,-0.0712681,-0.0285467,0.,-0.0044587,0.,0.1696137,0.,-0.0227688,0.,
 0.0750676,0.1399872,0.,0.0536376,0.,-0.1240154,0.,0.2077773,0.,0.16989
 76,0.0402674,0.,-0.1047671,0.,-0.2292391,0.,-0.1145552,0.,-0.4658331,0
 .2294356,0.,-0.0652931,0.,0.3230661,0.,-0.0484699,0.,0.2369863,-0.3831
 267,0.,0.2713964,0.,-0.181933,0.,0.3081724,0.,-0.2281059\Polar=53.5556
 778,0.,31.2336144,0.7022955,0.,51.787385\PG=CS [SG(C3H4N2)]\NImag=0\\0
 .31823278,0.,0.01781891,0.14079093,0.,0.12722155,-0.31444503,0.,-0.122
 75940,0.87494194,0.,-0.01816954,0.,0.,0.09139185,-0.13286073,0.,-0.125
 22337,0.09287277,0.,0.67370334,0.00041985,0.,-0.00085556,0.00246784,0.
 ,0.02637133,0.07913866,0.,-0.00195160,0.,0.,-0.00543443,0.,0.,0.020260
 84,0.00038432,0.,-0.00008769,-0.00468712,0.,0.00053922,-0.09723609,0.,
 0.36350480,-0.00639233,0.,0.01012074,-0.35147690,0.,0.09360638,-0.0865
 8518,0.,0.09171866,0.64787426,0.,-0.00278370,0.,0.,-0.04270323,0.,0.,-
 0.02030865,0.,0.,0.08925646,-0.01549474,0.,0.01320729,0.10113376,0.,-0
 .14092138,0.08887117,0.,-0.35215945,-0.11116300,0.,0.86242689,-0.00016
 266,0.,0.00028462,-0.00041897,0.,-0.00082433,-0.00007724,0.,-0.0003361
 9,-0.00423563,0.,0.00446421,0.39021536,0.,0.00096154,0.,0.,0.00580190,
 0.,0.,-0.00125801,0.,0.,-0.00280282,0.,0.,0.02245222,-0.00109705,0.,0.
 00118502,-0.00326591,0.,-0.00599741,0.00087125,0.,0.00031629,-0.022876
 79,0.,0.00681510,0.02338996,0.,0.05795962,-0.00443579,0.,0.00507997,-0
 .05415595,0.,-0.00464589,0.01325300,0.,0.01285094,-0.19185212,0.,-0.11
 667793,-0.37242381,0.,-0.03459527,0.89755801,0.,0.00556318,0.,0.,0.001
 91170,0.,0.,-0.00630966,0.,0.,-0.04566933,0.,0.,-0.02470576,0.,0.,0.11
 486432,0.00080023,0.,-0.00237036,-0.06146847,0.,0.01879533,-0.01622772
 ,0.,-0.00878491,-0.09580941,0.,-0.25166191,-0.02512773,0.,-0.06174354,
 0.02167771,0.,0.61035972,0.00054316,0.,0.00004744,-0.05531898,0.,-0.04
 143053,-0.00206835,0.,-0.00096945,0.02403615,0.,0.02995881,-0.01188608
 ,0.,0.02895208,-0.17491439,0.,0.14021594,0.52772847,0.,0.00650268,0.,0
 .,0.01643751,0.,0.,0.00730234,0.,0.,0.01538065,0.,0.,-0.00866189,0.,0.
 ,-0.06355412,0.,0.,0.09717617,0.00266354,0.,-0.00589331,-0.02386445,0.
 ,-0.05124259,-0.00626201,0.,-0.00362446,-0.02280589,0.,-0.07626895,-0.
 00404873,0.,0.00583520,0.08792735,0.,-0.27988608,-0.02714508,0.,0.5327
 8802,-0.00028479,0.,0.00041815,0.01004697,0.,-0.00726405,0.00079943,0.
 ,-0.00009380,0.00213101,0.,-0.00347400,-0.00041300,0.,0.00152833,-0.00
 739063,0.,-0.00591627,-0.02059190,0.,0.02575550,0.30436322,0.,-0.00118
 357,0.,0.,-0.00935845,0.,0.,0.00216048,0.,0.,0.00393976,0.,0.,0.002340
 03,0.,0.,0.00411449,0.,0.,-0.01282004,0.,0.,0.01254990,-0.00051371,0.,
 0.00025255,0.02589542,0.,-0.00436695,0.00129785,0.,0.00022242,-0.00264
 706,0.,-0.00727381,-0.00056761,0.,0.00102797,-0.00640970,0.,0.00128637
 ,-0.01471387,0.,0.01432328,-0.21204235,0.,0.25678815,0.00652481,0.,-0.
 03312689,-0.11164093,0.,-0.02582495,-0.00734802,0.,-0.00163126,-0.0334
 9927,0.,0.02238172,-0.00059797,0.,0.00709341,-0.10563833,0.,0.04185572
 ,-0.28752807,0.,-0.03222022,-0.28866029,0.,0.20970103,0.82838807,0.,-0
 .00675789,0.,0.,-0.03987731,0.,0.,0.00553868,0.,0.,0.00569086,0.,0.,0.
 00587280,0.,0.,0.01378518,0.,0.,-0.05776330,0.,0.,-0.00174260,0.,0.,0.
 07525358,0.00532722,0.,-0.00829167,-0.00385659,0.,-0.36528618,0.003169
 77,0.,0.00007378,0.05985638,0.,-0.05416378,0.00276580,0.,-0.00539826,0
 .03479282,0.,-0.02599463,-0.11491534,0.,-0.13603111,0.20108851,0.,-0.2
 6225997,-0.18822856,0.,0.85735182\\0.00005156,0.,0.00007140,0.00010570
 ,0.,-0.00045806,-0.00001789,0.,0.00003485,-0.00004457,0.,0.00004720,-0
 .00008290,0.,-0.00004480,0.00031671,0.,-0.00032353,-0.00033024,0.,0.00
 014671,-0.00006996,0.,-0.00007332,0.00007158,0.,0.00059956\\\@

 MOST BUREAUCRACIES FUNCTION LIKE A SEPTIC TANK.
 THE LARGE CHUNKS RISE TO THE TOP.
 Job cpu time:  0 days  1 hours 17 minutes 28.4 seconds.
 File lengths (MBytes):  RWF= 1025 Int=    0 D2E=    0 Chk=    4 Scr=    1
 Normal termination of Gaussian 98.
