 Gaussian 98, Revision A.7,
 Gaussian 98:  SGI64-G98RevA.7 11-Apr-1999

 ------------------------
 #CCSD(T)/6-311+G(3df,2p)
 ------------------------

 ---------------------------------------
 1hpyraz casno=288131 method=32 basis=10
 ---------------------------------------
 Symbolic Z-matrix:
 Charge =  0 Multiplicity = 1

                         Standard orientation:
 ---------------------------------------------------------------------
 Center     Atomic     Atomic              Coordinates (Angstroms)
 Number     Number      Type              X           Y           Z
 ---------------------------------------------------------------------
    1          1             0        2.109293    0.734318    0.000000
    2          6             0        1.116045    0.307575    0.000000
    3          1             0        1.264644   -1.897607    0.000000
    4          6             0        0.661716   -1.000953    0.000000
    5          1             0       -1.478961   -1.687420    0.000000
    6          6             0       -0.739907   -0.897221    0.000000
    7          7             0       -1.152991    0.386133    0.000000
    8          1             0       -0.051165    2.095796    0.000000
    9          7             0        0.000000    1.085082    0.000000
 ---------------------------------------------------------------------

 SCF Done:  E(RHF) =  -224.868213176     A.U. after   14 cycles
 CCSD(T)= -0.22581295384D+03

  The electronic state is 1-A'.
 Alpha  occ. eigenvalues --  -15.64211 -15.58948 -11.28116 -11.25476 -11.22440
 Alpha  occ. eigenvalues --   -1.37186  -1.09277  -1.05324  -0.82547  -0.79954
 Alpha  occ. eigenvalues --   -0.74324  -0.60848  -0.60574  -0.59305  -0.56461
 Alpha  occ. eigenvalues --   -0.46325  -0.36514  -0.34653
 Alpha virt. eigenvalues --    0.05748   0.07506   0.08499   0.10429   0.11129
 Alpha virt. eigenvalues --    0.11405   0.12454   0.14720   0.15108   0.16670
 Alpha virt. eigenvalues --    0.17744   0.17787   0.20124   0.21610   0.22091

 225.7652124\CCSD(T)=-225.8129538\RMSD=3.811e-09\PG=CS [SG(C3H4N2)]\\@
 Normal termination of Gaussian 98.
