 Gaussian 98, Revision A.6,
 Gaussian 98:  IBM-RS6000-G98RevA.6 19-Oct-1998

 --------------------------
 #MP2/6-31G(2df,p) opt freq
 --------------------------

 --------------------------------------
 1hpyraz casno=288131 method=3 basis=19
 --------------------------------------
 Symbolic Z-matrix:
 Charge =  0 Multiplicity = 1

 SCF Done:  E(RHF) =  -224.818554478     A.U. after   14 cycles
 E2 =    -0.8402456412D+00 EUMP2 =    -0.22565880011947D+03
 SCF Done:  E(RHF) =  -224.815921318     A.U. after   12 cycles
 E2 =    -0.8453401690D+00 EUMP2 =    -0.22566126148727D+03
 SCF Done:  E(RHF) =  -224.815045939     A.U. after   11 cycles
 E2 =    -0.8463866007D+00 EUMP2 =    -0.22566143253979D+03
 SCF Done:  E(RHF) =  -224.814911513     A.U. after   10 cycles
 E2 =    -0.8465333063D+00 EUMP2 =    -0.22566144481975D+03
 SCF Done:  E(RHF) =  -224.814953904     A.U. after    8 cycles
 E2 =    -0.8464931054D+00 EUMP2 =    -0.22566144700976D+03
 Optimization completed.
    -- Stationary point found.
 Normal termination of Gaussian 98.

 --------------------------------------------------------
 #N Geom=AllCheck Guess=TCheck RMP2(FC)/6-31G(2df,p) Freq
 --------------------------------------------------------

 1hpyraz casno=288131 method=3 basis=19
 --------------------------------------
 Redundant internal coordinates taken from checkpointfile:
 /wrk/rdj3/Gau-22030.chk
 Charge =  0 Multiplicity = 1

                         Standard orientation:
 ---------------------------------------------------------------------
 Center     Atomic     Atomic              Coordinates (Angstroms)
 Number     Number      Type              X           Y           Z
 ---------------------------------------------------------------------
    1          1             0        2.100099    0.735602    0.000000
    2          6             0        1.112157    0.306334    0.000000
    3          1             0        1.261607   -1.894395    0.000000
    4          6             0        0.659769   -1.001877    0.000000
    5          1             0       -1.479265   -1.678762    0.000000
    6          6             0       -0.739745   -0.894143    0.000000
    7          7             0       -1.146872    0.388481    0.000000
    8          1             0       -0.047427    2.086707    0.000000
    9          7             0        0.000000    1.081371    0.000000
 ---------------------------------------------------------------------

 SCF Done:  E(RHF) =  -224.814953904     A.U. after    1 cycles
 E2 =    -0.8464931083D+00 EUMP2 =    -0.22566144701266D+03

  The electronic state is 1-A'.
 Alpha  occ. eigenvalues --  -15.63781 -15.58214 -11.27598 -11.24975 -11.22042
 Alpha  occ. eigenvalues --   -1.36661  -1.08452  -1.04496  -0.81782  -0.79226
 Alpha  occ. eigenvalues --   -0.73495  -0.59981  -0.59958  -0.58475  -0.55419
 Alpha  occ. eigenvalues --   -0.45196  -0.35611  -0.33713
 Alpha virt. eigenvalues --    0.17586   0.22540   0.24322   0.28079   0.30092
 Alpha virt. eigenvalues --    0.31281   0.39228   0.40311   0.42382   0.49558
 Alpha virt. eigenvalues --    0.59502   0.63573   0.68145   0.68560   0.72553

  Exact polarizability:  47.118   1.973  47.977   0.000   0.000  20.556
 Approx polarizability:  46.383   0.662  48.330   0.000   0.000  24.104

                     1                      2                      3
                    A"                     A"                     A"
 Frequencies --   565.3276               638.9087               705.5521
 Red. masses --     1.9785                 2.9782                 2.4672
 Frc consts  --     0.3726                 0.7163                 0.7236
 IR Inten    --    40.0180                 0.0946                31.7606
 Raman Activ --     0.0000                 0.0000                 0.0000

                     4                      5                      6
                    A"                     A"                     A"
 Frequencies --   754.0280               830.3151               885.5537
 Red. masses --     1.2050                 1.1655                 1.2560
 Frc consts  --     0.4037                 0.4734                 0.5803
 IR Inten    --    58.4060                24.3412                 4.7834
 Raman Activ --     0.0000                 0.0000                 0.0000

                     7                      8                      9
                    A'                     A'                     A'
 Frequencies --   911.7960               933.2375              1069.5997
 Red. masses --     5.6548                 3.7769                 1.4430
 Frc consts  --     2.7699                 1.9381                 0.9727
 IR Inten    --     7.1900                 4.4908                 9.6864
 Raman Activ --     0.0000                 0.0000                 0.0000

                    10                     11                     12
                    A'                     A'                     A'
 Frequencies --  1073.6257              1169.8393              1198.7843
 Red. masses --     1.4996                 1.8061                 3.1334
 Frc consts  --     1.0185                 1.4562                 2.6531
 IR Inten    --    29.3768                10.4416                 0.8862
 Raman Activ --     0.0000                 0.0000                 0.0000

                    13                     14                     15
                    A'                     A'                     A'
 Frequencies --  1298.0487              1379.6233              1456.8750
 Red. masses --     1.6228                 2.8308                 4.2273
 Frc consts  --     1.6110                 3.1746                 5.2864
 IR Inten    --     3.5451                 2.4558                12.0642
 Raman Activ --     0.0000                 0.0000                 0.0000

                    16                     17                     18
                    A'                     A'                     A'
 Frequencies --  1508.0167              1552.7241              3308.4296
 Red. masses --     2.9280                 3.0154                 1.0912
 Frc consts  --     3.9231                 4.2834                 7.0369
 IR Inten    --     4.9809                 5.0884                 1.0727
 Raman Activ --     0.0000                 0.0000                 0.0000

                    19                     20                     21
                    A'                     A'                     A'
 Frequencies --  3317.0811              3338.5585              3710.7980
 Red. masses --     1.0950                 1.1075                 1.0824
 Frc consts  --     7.0986                 7.2728                 8.7816
 IR Inten    --     0.1836                 0.0693               100.2435
 Raman Activ --     0.0000                 0.0000                 0.0000

 - Thermochemistry -
 -------------------
 Temperature   298.150 Kelvin.  Pressure   1.00000 Atm.
 Atom  1 has atomic number  1 and mass   1.00783

 Molecular mass:    68.03745 amu.
 Principal axes and moments of inertia in atomic units:
                           1         2         3
     EIGENVALUES --   186.74587 191.41138 378.15724
           X            0.85942   0.51127   0.00000
           Y           -0.51127   0.85942   0.00000
           Z            0.00000   0.00000   1.00000
 THIS MOLECULE IS AN ASYMMETRIC TOP.
 ROTATIONAL SYMMETRY NUMBER  1.
 ROTATIONAL TEMPERATURES (KELVIN)      0.46380     0.45250     0.22904
 ROTATIONAL CONSTANTS (GHZ)            9.66416     9.42860     4.77246
 Zero-point vibrational energy     189050.2 (Joules/Mol)
                                   45.18408 (Kcal/Mol)
 WARNING-- EXPLICIT CONSIDERATION OF   1 DEGREES OF FREEDOM AS
           VIBRATIONS MAY CAUSE SIGNIFICANT ERROR
 VIBRATIONAL TEMPERATURES:    813.38   919.24  1015.13  1084.87  1194.63
          (KELVIN)           1274.11  1311.86  1342.71  1538.91  1544.70
                             1683.13  1724.77  1867.59  1984.96  2096.11
                             2169.69  2234.01  4760.06  4772.51  4803.41
                             5338.98

 Zero-point correction=                           0.072005 (Hartree/Particle)
 Thermal correction to Energy=                    0.075713
 Thermal correction to Enthalpy=                  0.076657
 Thermal correction to Gibbs Free Energy=         0.045757
 Sum of electronic and zero-point Energies=           -225.589442
 Sum of electronic and thermal Energies=              -225.585734
 Sum of electronic and thermal Enthalpies=            -225.584790
 Sum of electronic and thermal Free Energies=         -225.615690

                     E (Thermal)             CV                S
                      KCAL/MOL        CAL/MOL-KELVIN    CAL/MOL-KELVIN
 TOTAL                   47.511             13.155             65.034
 ELECTRONIC               0.000              0.000              0.000
 TRANSLATIONAL            0.889              2.981             38.570
 ROTATIONAL               0.889              2.981             24.117
 VIBRATIONAL             45.733              7.194              2.346
 VIBRATION  1             0.921              1.106              0.513
                       Q            LOG10(Q)             LN(Q)
 TOTAL BOT       0.897971D-21        -21.046738        -48.461905
 TOTAL V=0       0.118367D+13         12.073232         27.799644
 VIB (BOT)       0.978103D-33        -33.009615        -76.007448
 VIB (BOT)  1    0.273498D+00         -0.563045         -1.296460
 VIB (V=0)       0.128930D+01          0.110355          0.254101
 VIB (V=0)  1    0.106991D+01          0.029349          0.067578
 ELECTRONIC      0.100000D+01          0.000000          0.000000
 TRANSLATIONAL   0.220588D+08          7.343582         16.909224
 ROTATIONAL      0.416193D+05          4.619295         10.636320
 ***** Axes restored to original set *****
 -------------------------------------------------------------------
 Center     Atomic                   Forces (Hartrees/Bohr)
 Number     Number              X              Y              Z
 -------------------------------------------------------------------
    1          1           0.000027053   -0.000020486    0.000000000
    2          6          -0.000077330    0.000071288    0.000000000
    3          1           0.000007048    0.000023806    0.000000000
    4          6           0.000079543    0.000011014    0.000000000
    5          1          -0.000033100    0.000004688    0.000000000
    6          6          -0.000188477    0.000029245    0.000000000
    7          7           0.000248805   -0.000130683    0.000000000
    8          1           0.000038665    0.000014404    0.000000000
    9          7          -0.000102207   -0.000003275    0.000000000
 -------------------------------------------------------------------
 Cartesian Forces:  Max     0.000248805 RMS     0.000074016

 GradGradGradGradGradGradGradGradGradGradGradGradGradGradGradGradGradGrad
 Berny optimization.
 Internal  Forces:  Max     0.000134987 RMS     0.000044915
 Search for a local minimum.
 Step number   1 out of a maximum of  48
 All quantities printed in internal units (Hartrees-Bohrs-Radians)
 Second derivative matrix not updated -- analytic derivatives used.
     Eigenvalues ---    0.00811   0.01115   0.01598   0.02827   0.05898
     Eigenvalues ---    0.06211   0.09264   0.10313   0.10929   0.11765
     Eigenvalues ---    0.22538   0.27631   0.35857   0.37856   0.38745
     Eigenvalues ---    0.38950   0.39436   0.45497   0.48778   0.50011
     Eigenvalues ---    0.552921000.000001000.000001000.000001000.00000
     Eigenvalues --- 1000.000001000.000001000.000001000.000001000.00000
     Eigenvalues --- 1000.000001000.000001000.000001000.000001000.00000
     Eigenvalues --- 1000.000001000.000001000.00000
 Angle between quadratic step and forces=  29.99 degrees.
 Linear search not attempted -- first point.
 Iteration  1 RMS(Cart)=  0.00021866 RMS(Int)=  0.00000003
 Iteration  2 RMS(Cart)=  0.00000004 RMS(Int)=  0.00000001
 Variable       Old X    -DE/DX   Delta X   Delta X   Delta X     New X
                                 (Linear)    (Quad)   (Total)
    R1        2.03556   0.00002   0.00000   0.00004   0.00004   2.03560
    R2        2.61580   0.00002   0.00000  -0.00001  -0.00001   2.61579
    R3        2.56166  -0.00006   0.00000  -0.00009  -0.00009   2.56157
    R4        2.03424  -0.00002   0.00000  -0.00003  -0.00003   2.03421
    R5        2.65252   0.00008   0.00000   0.00029   0.00029   2.65281
    R6        2.03750   0.00002   0.00000   0.00003   0.00003   2.03753
    R7        2.54298  -0.00012   0.00000  -0.00030  -0.00030   2.54268
    R8        2.53210  -0.00008   0.00000  -0.00028  -0.00028   2.53182
    R9        1.90192   0.00001   0.00000   0.00002   0.00002   1.90194
    A1        2.31363  -0.00003   0.00000  -0.00040  -0.00040   2.31323
    A2        2.12307   0.00003   0.00000   0.00033   0.00033   2.12340
    A3        1.84649   0.00001   0.00000   0.00007   0.00007   1.84655
    A4        2.21538  -0.00002   0.00000  -0.00024  -0.00024   2.21514
    A5        1.82690   0.00000   0.00000   0.00001   0.00001   1.82691
    A6        2.24090   0.00002   0.00000   0.00024   0.00024   2.24114
    A7        2.24979   0.00008   0.00000   0.00042   0.00042   2.25020
    A8        1.95498  -0.00010   0.00000  -0.00032  -0.00032   1.95466
    A9        2.07842   0.00002   0.00000  -0.00010  -0.00010   2.07832
   A10        1.80691   0.00013   0.00000   0.00044   0.00044   1.80735
   A11        1.98950  -0.00005   0.00000  -0.00019  -0.00019   1.98931
   A12        2.22656  -0.00001   0.00000  -0.00019  -0.00019   2.22637
   A13        2.06713   0.00006   0.00000   0.00038   0.00038   2.06751
    D1        0.00000   0.00000   0.00000   0.00000   0.00000   0.00000
    D2        3.14159   0.00000   0.00000   0.00000   0.00000   3.14159
    D3        3.14159   0.00000   0.00000   0.00000   0.00000   3.14159
    D4        0.00000   0.00000   0.00000   0.00000   0.00000   0.00000
    D5        3.14159   0.00000   0.00000   0.00000   0.00000   3.14159
    D6        0.00000   0.00000   0.00000   0.00000   0.00000   0.00000
    D7        0.00000   0.00000   0.00000   0.00000   0.00000   0.00000
    D8        3.14159   0.00000   0.00000   0.00000   0.00000   3.14159
    D9        3.14159   0.00000   0.00000   0.00000   0.00000   3.14159
   D10        0.00000   0.00000   0.00000   0.00000   0.00000   0.00000
   D11        0.00000   0.00000   0.00000   0.00000   0.00000   0.00000
   D12        3.14159   0.00000   0.00000   0.00000   0.00000   3.14159
   D13        0.00000   0.00000   0.00000   0.00000   0.00000   0.00000
   D14        3.14159   0.00000   0.00000   0.00000   0.00000   3.14159
   D15        0.00000   0.00000   0.00000   0.00000   0.00000   0.00000
   D16        3.14159   0.00000   0.00000   0.00000   0.00000   3.14159
         Item               Value     Threshold  Converged?
 Maximum Force            0.000135     0.000450     YES
 RMS     Force            0.000045     0.000300     YES
 Maximum Displacement     0.000708     0.001800     YES
 RMS     Displacement     0.000219     0.001200     YES
 Predicted change in Energy=-1.394873D-07
 Optimization completed.
    -- Stationary point found.
                         ----------------------------
                         !   Optimized Parameters   !
                         ! (Angstroms and Degrees)  !
 ------------------------                            -------------------------
 ! Name  Definition              Value          Derivative Info.             !
 -----------------------------------------------------------------------------
 ! R1    R(1,2)                  1.0772         -DE/DX =    0.               !
 ! R2    R(2,4)                  1.3842         -DE/DX =    0.               !
 ! R3    R(2,9)                  1.3556         -DE/DX =   -0.0001           !
 ! R4    R(3,4)                  1.0765         -DE/DX =    0.               !
 ! R5    R(4,6)                  1.4037         -DE/DX =    0.0001           !
 ! R6    R(5,6)                  1.0782         -DE/DX =    0.               !
 ! R7    R(6,7)                  1.3457         -DE/DX =   -0.0001           !
 ! R8    R(7,9)                  1.3399         -DE/DX =   -0.0001           !
 ! R9    R(8,9)                  1.0065         -DE/DX =    0.               !
 ! A1    A(1,2,4)              132.561          -DE/DX =    0.               !
 ! A2    A(1,2,9)              121.6429         -DE/DX =    0.               !
 ! A3    A(4,2,9)              105.796          -DE/DX =    0.               !
 ! A4    A(2,4,3)              126.9319         -DE/DX =    0.               !
 ! A5    A(2,4,6)              104.6738         -DE/DX =    0.               !
 ! A6    A(3,4,6)              128.3942         -DE/DX =    0.               !
 ! A7    A(4,6,5)              128.9032         -DE/DX =    0.0001           !
 ! A8    A(4,6,7)              112.0122         -DE/DX =   -0.0001           !
 ! A9    A(5,6,7)              119.0845         -DE/DX =    0.               !
 ! A10   A(6,7,9)              103.5282         -DE/DX =    0.0001           !
 ! A11   A(2,9,7)              113.9897         -DE/DX =    0.               !
 ! A12   A(2,9,8)              127.5727         -DE/DX =    0.               !
 ! A13   A(7,9,8)              118.4376         -DE/DX =    0.0001           !
 ! D1    D(1,2,4,3)              0.             -DE/DX =    0.               !
 ! D2    D(1,2,4,6)            180.             -DE/DX =    0.               !
 ! D3    D(9,2,4,3)            180.             -DE/DX =    0.               !
 ! D4    D(9,2,4,6)              0.             -DE/DX =    0.               !
 ! D5    D(1,2,9,7)            180.             -DE/DX =    0.               !
 ! D6    D(1,2,9,8)              0.             -DE/DX =    0.               !
 ! D7    D(4,2,9,7)              0.             -DE/DX =    0.               !
 ! D8    D(4,2,9,8)            180.             -DE/DX =    0.               !
 ! D9    D(2,4,6,5)            180.             -DE/DX =    0.               !
 ! D10   D(2,4,6,7)              0.             -DE/DX =    0.               !
 ! D11   D(3,4,6,5)              0.             -DE/DX =    0.               !
 ! D12   D(3,4,6,7)            180.             -DE/DX =    0.               !
 ! D13   D(4,6,7,9)              0.             -DE/DX =    0.               !
 ! D14   D(5,6,7,9)            180.             -DE/DX =    0.               !
 ! D15   D(6,7,9,2)              0.             -DE/DX =    0.               !
 ! D16   D(6,7,9,8)            180.             -DE/DX =    0.               !
 -----------------------------------------------------------------------------
 GradGradGradGradGradGradGradGradGradGradGradGradGradGradGradGradGradGrad

 1\1\GINC-AURUM\Freq\RMP2-FC\6-31G(2df,p)\C3H4N2\RDJ3\17-May-2004\0\\#N
  GEOM=ALLCHECK GUESS=TCHECK RMP2(FC)/6-31G(2DF,P) FREQ\\1hpyraz casno=
 288131 method=3 basis=19\\0,1\H,2.1006761898,0.7339529208,0.\C,1.11239
 75999,0.3054607912,0.\H,1.2601189457,-1.8953855262,0.\C,0.6589821602,-
 1.0023945615,0.\H,-1.4805827441,-1.6775995299,0.\C,-0.740447036,-0.893
 5622428,0.\N,-1.1465664093,0.3893813425,0.\H,-0.0457885304,2.086743251
 8,0.\N,0.0008492372,1.0813707949,0.\\Version=IBM-RS6000-G98RevA.6\Stat
 e=1-A'\HF=-224.8149539\MP2=-225.661447\RMSD=2.720e-09\RMSF=7.402e-05\D
 ipole=0.8201602,0.3627652,0.\DipoleDeriv=0.0268385,-0.0282163,0.,-0.04
 48073,0.0636048,0.,0.,0.,0.1730277,-0.0325758,-0.1542929,0.,-0.0492603
 ,0.2862672,0.,0.,0.,-0.1035394,0.0600491,0.0534701,0.,0.0505113,0.0347
 146,0.,0.,0.,0.150208,-0.1047549,-0.1171825,0.,-0.0217837,-0.1158465,0
 .,0.,0.,-0.1831268,0.0291275,-0.0621319,0.,-0.0403518,0.0331534,0.,0.,
 0.,0.1338969,0.2576,0.0985071,0.,0.0158543,0.0022908,0.,0.,0.,-0.07121
 87,-0.3933061,0.2265442,0.,0.1948833,-0.0903627,0.,0.,0.,-0.2410516,0.
 1784874,-0.0102138,0.,-0.025333,0.2941533,0.,0.,0.,0.2976429,-0.021465
 8,-0.006484,0.,-0.0797128,-0.5079749,0.,0.,0.,-0.1558389\Polar=47.1210
 632,1.974043,47.973815,0.,0.,20.5560047\PG=CS [SG(C3H4N2)]\NImag=0\\0.
 33459589,0.12159130,0.10334770,0.,0.,0.01951455,-0.31827995,-0.1233524
 7,0.,0.83232849,-0.11361528,-0.11210630,0.,0.11169206,0.69491770,0.,0.
 ,-0.02179294,0.,0.,0.10967970,-0.00008490,0.00066471,0.,0.01055998,-0.
 01251832,0.,0.15285789,-0.00029483,0.00045695,0.,0.01867235,-0.0090485
 6,0.,-0.15798771,0.28334086,0.,0.,-0.00213502,0.,0.,-0.00349370,0.,0.,
 0.02241437,0.00234987,-0.02250825,0.,-0.12083079,-0.07643443,0.,-0.154
 47206,0.14666641,0.,0.65266353,0.00389459,0.00372300,0.,-0.08600120,-0
 .35475310,0.,0.14926494,-0.27575038,0.,-0.13024418,0.82506217,0.,0.,-0
 .00129424,0.,0.,-0.05666665,0.,0.,-0.02571775,0.,0.,0.11168606,0.00030
 491,-0.00148154,0.,-0.00593058,0.00134657,0.,0.00050831,0.00033878,0.,
 -0.00664072,-0.02095518,0.,0.20971321,-0.00007700,0.00080829,0.,0.0031
 3745,-0.00076701,0.,-0.00064407,-0.00019243,0.,0.00729064,0.00813230,0
 .,0.16502127,0.23022348,0.,0.,0.00106843,0.,0.,0.00491589,0.,0.,-0.001
 81713,0.,0.,-0.00025352,0.,0.,0.02454541,-0.00043484,-0.00230059,0.,-0
 .04473728,-0.07256993,0.,-0.00167616,-0.00472001,0.,-0.32592798,0.0201
 4872,0.,-0.21029092,-0.15187807,0.,0.73465317,0.00150549,-0.00671285,0
 .,-0.01095461,0.00571149,0.,0.02486696,0.00517408,0.,-0.00295444,-0.10
 541014,0.,-0.16010770,-0.21342777,0.,0.14349157,0.75022027,0.,0.,0.004
 99083,0.,0.,0.00848365,0.,0.,-0.00369307,0.,0.,-0.06102955,0.,0.,-0.02
 929405,0.,0.,0.13396348,-0.00190189,0.00500118,0.,-0.08542592,-0.00018
 152,0.,-0.00669339,-0.00239569,0.,-0.03303746,0.02225854,0.,0.00993912
 ,-0.02260961,0.,-0.12237097,0.04818626,0.,0.50883586,0.00243168,-0.003
 13064,0.,-0.01947355,-0.02221028,0.,0.00257326,0.00109402,0.,0.0756996
 4,-0.02074588,0.,0.01009422,-0.01731842,0.,0.10092042,-0.32281091,0.,-
 0.00264236,0.55349390,0.,0.,0.00698602,0.,0.,0.01848694,0.,0.,0.007197
 25,0.,0.,0.01823773,0.,0.,-0.00829828,0.,0.,-0.07071973,0.,0.,0.106091
 80,0.00003569,-0.00074947,0.,0.00919134,0.02556990,0.,0.00109198,0.001
 08634,0.,-0.00650886,0.00402607,0.,0.00097130,-0.00163718,0.,-0.008034
 94,-0.00544965,0.,0.00478218,-0.03625068,0.,0.06647113,0.00010226,0.00
 008956,0.,-0.00767318,-0.00590696,0.,-0.00027900,-0.00004615,0.,0.0039
 5976,0.00153015,0.,0.00040440,-0.00034852,0.,-0.00583278,0.00221155,0.
 ,0.00311811,-0.01341817,0.,-0.02053568,0.48817347,0.,0.,-0.00152440,0.
 ,0.,-0.00783498,0.,0.,0.00232817,0.,0.,0.00312315,0.,0.,0.00235684,0.,
 0.,0.00492006,0.,0.,-0.01281014,0.,0.,0.01410085,-0.01658478,0.0231351
 2,0.,-0.27687529,0.13671096,0.,-0.00209164,-0.00136564,0.,-0.00759553,
 0.03760769,0.,0.00142538,0.00139656,0.,-0.02118007,-0.03858387,0.,-0.2
 7412752,-0.13335262,0.,-0.06799983,0.02673611,0.,0.66502928,-0.0155382
 2,0.01352429,0.,0.11395315,-0.19583697,0.,-0.00594076,-0.00502839,0.,-
 0.00147514,-0.08178811,0.,0.00533917,-0.00710992,0.,-0.02725933,-0.114
 95572,0.,-0.05073490,-0.15495361,0.,0.03394034,-0.47228492,0.,-0.05228
 430,1.01843336,0.,0.,-0.00581323,0.,0.,-0.05177790,0.,0.,0.00491687,0.
 ,0.,0.01191477,0.,0.,0.00677642,0.,0.,0.01237837,0.,0.,-0.06517158,0.,
 0.,-0.00465956,0.,0.,0.09143583\\-0.00002705,0.00002049,0.,0.00007733,
 -0.00007129,0.,-0.00000705,-0.00002381,0.,-0.00007954,-0.00001101,0.,0
 .00003310,-0.00000469,0.,0.00018848,-0.00002925,0.,-0.00024881,0.00013
 068,0.,-0.00003866,-0.00001440,0.,0.00010221,0.00000328,0.\\\@

 MORNING PEOPLE ARE USUALLY ADMIRED AS EARLY BIRDS.
 RECALL BEN FRANKLIN'S APHORISM THAT THE EARLY BIRD GETS THE WORM.
 I IDENTIFY WITH THE WORM. --  CRAIG JAGGER, MINNEAPOLIS, KS.
 Job cpu time:  0 days  4 hours 15 minutes 43.4 seconds.
 File lengths (MBytes):  RWF= 3162 Int=    0 D2E=    0 Chk=    5 Scr=    1
 Normal termination of Gaussian 98.
