 Gaussian 98, Revision A.4,
 Gaussian 98:  IBM-RS6000-G98RevA.4 11-Sep-1998

 --------------------
 #MP2/6-31G* OPT FREQ
 --------------------

 -------------------------------
 1H pyrazole C3H4N2 casno=288131
 -------------------------------
 Symbolic Z-matrix:
 Charge =  0 Multiplicity = 1

 SCF Done:  E(RHF) =  -224.793493484     A.U. after   15 cycles
 E2 =    -0.7063525494D+00 EUMP2 =    -0.22549984603344D+03
 SCF Done:  E(RHF) =  -224.790208239     A.U. after   13 cycles
 E2 =    -0.7131464147D+00 EUMP2 =    -0.22550335465396D+03
 SCF Done:  E(RHF) =  -224.789448182     A.U. after   12 cycles
 E2 =    -0.7140725691D+00 EUMP2 =    -0.22550352075073D+03
 SCF Done:  E(RHF) =  -224.789280710     A.U. after   11 cycles
 E2 =    -0.7142528228D+00 EUMP2 =    -0.22550353353243D+03
 SCF Done:  E(RHF) =  -224.789329815     A.U. after    9 cycles
 E2 =    -0.7142064872D+00 EUMP2 =    -0.22550353630261D+03
 Optimization completed.
    -- Stationary point found.
 Normal termination of Gaussian 98.

 ----------------------------------------------------
 #N Geom=AllCheck Guess=TCheck RMP2(FC)/6-31G(d) Freq
 ----------------------------------------------------

 1H pyrazole C3H4N2 casno=288131
 -------------------------------
 Redundant internal coordinates taken from checkpointfile:
 /wrk/rdj3/Gau-53406.chk
 Charge =  0 Multiplicity = 1

                         Standard orientation:
 ---------------------------------------------------------------------
 Center     Atomic     Atomic              Coordinates (Angstroms)
 Number     Number      Type              X           Y           Z
 ---------------------------------------------------------------------
    1          1             0        2.109293    0.734318    0.000000
    2          6             0        1.116045    0.307575    0.000000
    3          1             0        1.264644   -1.897607    0.000000
    4          6             0        0.661716   -1.000953    0.000000
    5          1             0       -1.478961   -1.687420    0.000000
    6          6             0       -0.739907   -0.897221    0.000000
    7          7             0       -1.152991    0.386133    0.000000
    8          1             0       -0.051165    2.095796    0.000000
    9          7             0        0.000000    1.085082    0.000000
 ---------------------------------------------------------------------

 SCF Done:  E(RHF) =  -224.789329815     A.U. after    1 cycles
 E2 =    -0.7142064890D+00 EUMP2 =    -0.22550353630438D+03

  The electronic state is 1-A'.
 Alpha  occ. eigenvalues --  -15.64358 -15.58733 -11.27859 -11.25064 -11.22165
 Alpha  occ. eigenvalues --   -1.36608  -1.08691  -1.04675  -0.82000  -0.79298
 Alpha  occ. eigenvalues --   -0.73724  -0.60265  -0.59799  -0.58701  -0.55826
 Alpha  occ. eigenvalues --   -0.45457  -0.35733  -0.33829
 Alpha virt. eigenvalues --    0.17351   0.22422   0.24323   0.27908   0.30253
 Alpha virt. eigenvalues --    0.31440   0.40144   0.41092   0.45465   0.57952
 Alpha virt. eigenvalues --    0.65244   0.74193   0.77435   0.78257   0.82734

  Exact polarizability:  45.671   2.020  46.589   0.000   0.000  16.721
 Approx polarizability:  44.636   0.477  46.476   0.000   0.000  18.778

                     1                      2                      3
                    A"                     A"                     A"
 Frequencies --   522.5106               620.7373               696.8895
 Red. masses --     2.0601                 3.7058                 2.6057
 Frc consts  --     0.3314                 0.8413                 0.7456
 IR Inten    --    46.8109                 0.3764                35.7203
 Raman Activ --     0.0000                 0.0000                 0.0000

                     4                      5                      6
                    A"                     A"                     A"
 Frequencies --   718.6309               791.4514               833.0908
 Red. masses --     1.1782                 1.1135                 1.1842
 Frc consts  --     0.3585                 0.4110                 0.4842
 IR Inten    --    62.8779                30.6041                18.5776
 Raman Activ --     0.0000                 0.0000                 0.0000

                     7                      8                      9
                    A'                     A'                     A'
 Frequencies --   920.1467               941.7244              1080.7026
 Red. masses --     5.6603                 4.1420                 1.6220
 Frc consts  --     2.8236                 2.1643                 1.1161
 IR Inten    --     7.6688                 3.9709                26.8770
 Raman Activ --     0.0000                 0.0000                 0.0000

                    10                     11                     12
                    A'                     A'                     A'
 Frequencies --  1089.0179              1182.2764              1204.6735
 Red. masses --     1.3955                 1.9185                 2.6451
 Frc consts  --     0.9751                 1.5800                 2.2617
 IR Inten    --    13.6043                12.3448                 0.8340
 Raman Activ --     0.0000                 0.0000                 0.0000

                    13                     14                     15
                    A'                     A'                     A'
 Frequencies --  1309.3275              1397.0163              1485.2613
 Red. masses --     1.7390                 2.4940                 4.1182
 Frc consts  --     1.7565                 2.8678                 5.3526
 IR Inten    --     2.5205                 3.2697                12.4823
 Raman Activ --     0.0000                 0.0000                 0.0000

                    16                     17                     18
                    A'                     A'                     A'
 Frequencies --  1526.3109              1577.4718              3304.2762
 Red. masses --     2.8028                 3.0412                 1.0918
 Frc consts  --     3.8470                 4.4588                 7.0233
 IR Inten    --     6.9537                 5.8170                 2.2170
 Raman Activ --     0.0000                 0.0000                 0.0000

                    19                     20                     21
                    A'                     A'                     A'
 Frequencies --  3313.8911              3331.3573              3676.9319
 Red. masses --     1.0955                 1.1079                 1.0828
 Frc consts  --     7.0879                 7.2444                 8.6249
 IR Inten    --     1.4492                 0.1837                90.2627
 Raman Activ --     0.0000                 0.0000                 0.0000

 - Thermochemistry -
 -------------------
 Temperature   298.150 Kelvin.  Pressure   1.00000 Atm.
 Atom  1 has atomic number  1 and mass   1.00783

 Molecular mass:    68.03745 amu.
 Principal axes and moments of inertia in atomic units:
                           1         2         3
     EIGENVALUES --   187.79994 192.49514 380.29507
           X            0.89376   0.44854   0.00000
           Y           -0.44854   0.89376   0.00000
           Z            0.00000   0.00000   1.00000
 THIS MOLECULE IS AN ASYMMETRIC TOP.
 ROTATIONAL SYMMETRY NUMBER  1.
 ROTATIONAL TEMPERATURES (KELVIN)      0.46120     0.44995     0.22775
 ROTATIONAL CONSTANTS (GHZ)            9.60991     9.37552     4.74563
 Zero-point vibrational energy     188553.6 (Joules/Mol)
                                   45.06539 (Kcal/Mol)
 WARNING-- EXPLICIT CONSIDERATION OF   2 DEGREES OF FREEDOM AS
           VIBRATIONS MAY CAUSE SIGNIFICANT ERROR
 VIBRATIONAL TEMPERATURES:    751.77   893.10  1002.66  1033.94  1138.72
          (KELVIN)           1198.62  1323.88  1354.92  1554.88  1566.84
                             1701.02  1733.25  1883.82  2009.98  2136.95
                             2196.01  2269.62  4754.09  4767.92  4793.05
                             5290.25

 Zero-point correction=                           0.071816 (Hartree/Particle)
 Thermal correction to Energy=                    0.075590
 Thermal correction to Enthalpy=                  0.076534
 Thermal correction to Gibbs Free Energy=         0.045529
 Sum of electronic and zero-point Energies=           -225.431720
 Sum of electronic and thermal Energies=              -225.427946
 Sum of electronic and thermal Enthalpies=            -225.427002
 Sum of electronic and thermal Free Energies=         -225.458007

                     E (Thermal)             CV                S
                      KCAL/MOL        CAL/MOL-KELVIN    CAL/MOL-KELVIN
 TOTAL                   47.434             13.420             65.256
 ELECTRONIC               0.000              0.000              0.000
 TRANSLATIONAL            0.889              2.981             38.570
 ROTATIONAL               0.889              2.981             24.134
 VIBRATIONAL             45.656              7.459              2.551
 VIBRATION  1             0.877              1.200              0.604
 VIBRATION  2             0.981              0.988              0.415
                       Q            LOG10(Q)             LN(Q)
 TOTAL BOT       0.114316D-20        -20.941894        -48.220493
 TOTAL V=0       0.123332D+13         12.091074         27.840728
 VIB (BOT)       0.123468D-32        -32.908444        -75.774492
 VIB (BOT)  1    0.308210D+00         -0.511153         -1.176973
 VIB (BOT)  2    0.235411D+00         -0.628174         -1.446424
 VIB (V=0)       0.133206D+01          0.124525          0.286728
 VIB (V=0)  1    0.108736D+01          0.036374          0.083754
 VIB (V=0)  2    0.105265D+01          0.022283          0.051307
 ELECTRONIC      0.100000D+01          0.000000          0.000000
 TRANSLATIONAL   0.220588D+08          7.343582         16.909224
 ROTATIONAL      0.419727D+05          4.622967         10.644776
 ***** Axes restored to original set *****
 -------------------------------------------------------------------
 Center     Atomic                   Forces (Hartrees/Bohr)
 Number     Number              X              Y              Z
 -------------------------------------------------------------------
    1          1           0.000001330    0.000000000   -0.000033327
    2          6          -0.000011263    0.000000000    0.000135296
    3          1          -0.000021258    0.000000000    0.000007531
    4          6          -0.000032515    0.000000000   -0.000060281
    5          1           0.000010247    0.000000000    0.000020238
    6          6           0.000085974    0.000000000    0.000136003
    7          7          -0.000104021    0.000000000   -0.000241882
    8          1          -0.000029570    0.000000000   -0.000016706
    9          7           0.000101076    0.000000000    0.000053129
 -------------------------------------------------------------------
 Cartesian Forces:  Max     0.000241882 RMS     0.000070623

 GradGradGradGradGradGradGradGradGradGradGradGradGradGradGradGradGradGrad
 Berny optimization.
 Internal  Forces:  Max     0.000120165 RMS     0.000041778
 Search for a local minimum.
 Step number   1 out of a maximum of  48
 All quantities printed in internal units (Hartrees-Bohrs-Radians)
 Second derivative matrix not updated -- analytic derivatives used.
     Eigenvalues ---    0.00681   0.00984   0.01470   0.02675   0.05638
     Eigenvalues ---    0.06056   0.09761   0.10743   0.11397   0.12207
     Eigenvalues ---    0.23088   0.28315   0.36365   0.38051   0.38652
     Eigenvalues ---    0.38877   0.40023   0.46004   0.48043   0.50593
     Eigenvalues ---    0.560451000.000001000.000001000.000001000.00000
     Eigenvalues --- 1000.000001000.000001000.000001000.000001000.00000
     Eigenvalues --- 1000.000001000.000001000.000001000.000001000.00000
     Eigenvalues --- 1000.000001000.000001000.00000
 Angle between quadratic step and forces=  30.08 degrees.
 Linear search not attempted -- first point.
 Iteration  1 RMS(Cart)=  0.00018774 RMS(Int)=  0.00000003
 Iteration  2 RMS(Cart)=  0.00000003 RMS(Int)=  0.00000001
 Variable       Old X    -DE/DX   Delta X   Delta X   Delta X     New X
                                 (Linear)    (Quad)   (Total)
    R1        2.04287   0.00001   0.00000   0.00004   0.00004   2.04291
    R2        2.61757   0.00003   0.00000   0.00003   0.00003   2.61760
    R3        2.57036  -0.00008   0.00000  -0.00014  -0.00014   2.57021
    R4        2.04188  -0.00001   0.00000  -0.00003  -0.00003   2.04185
    R5        2.65593   0.00006   0.00000   0.00023   0.00023   2.65616
    R6        2.04459   0.00001   0.00000   0.00001   0.00001   2.04460
    R7        2.54772  -0.00010   0.00000  -0.00022  -0.00022   2.54750
    R8        2.54792  -0.00011   0.00000  -0.00035  -0.00035   2.54757
    R9        1.91242   0.00001   0.00000   0.00002   0.00002   1.91244
    A1        2.31078  -0.00004   0.00000  -0.00039  -0.00039   2.31039
    A2        2.12731   0.00002   0.00000   0.00032   0.00032   2.12763
    A3        1.84510   0.00001   0.00000   0.00007   0.00007   1.84516
    A4        2.21543  -0.00001   0.00000  -0.00021  -0.00021   2.21523
    A5        1.83111  -0.00001   0.00000  -0.00003  -0.00003   1.83108
    A6        2.23665   0.00002   0.00000   0.00024   0.00024   2.23688
    A7        2.24889   0.00006   0.00000   0.00033   0.00033   2.24922
    A8        1.95608  -0.00009   0.00000  -0.00029  -0.00029   1.95579
    A9        2.07822   0.00002   0.00000  -0.00004  -0.00004   2.07818
   A10        1.80436   0.00012   0.00000   0.00038   0.00038   1.80474
   A11        1.98814  -0.00003   0.00000  -0.00013  -0.00013   1.98801
   A12        2.22986  -0.00001   0.00000  -0.00018  -0.00018   2.22968
   A13        2.06519   0.00005   0.00000   0.00031   0.00031   2.06549
    D1        0.00000   0.00000   0.00000   0.00000   0.00000   0.00000
    D2        3.14159   0.00000   0.00000   0.00000   0.00000   3.14159
    D3        3.14159   0.00000   0.00000   0.00000   0.00000   3.14159
    D4        0.00000   0.00000   0.00000   0.00000   0.00000   0.00000
    D5        3.14159   0.00000   0.00000   0.00000   0.00000   3.14159
    D6        0.00000   0.00000   0.00000   0.00000   0.00000   0.00000
    D7        0.00000   0.00000   0.00000   0.00000   0.00000   0.00000
    D8        3.14159   0.00000   0.00000   0.00000   0.00000   3.14159
    D9        3.14159   0.00000   0.00000   0.00000   0.00000   3.14159
   D10        0.00000   0.00000   0.00000   0.00000   0.00000   0.00000
   D11        0.00000   0.00000   0.00000   0.00000   0.00000   0.00000
   D12        3.14159   0.00000   0.00000   0.00000   0.00000   3.14159
   D13        0.00000   0.00000   0.00000   0.00000   0.00000   0.00000
   D14        3.14159   0.00000   0.00000   0.00000   0.00000   3.14159
   D15        0.00000   0.00000   0.00000   0.00000   0.00000   0.00000
   D16        3.14159   0.00000   0.00000   0.00000   0.00000   3.14159
         Item               Value     Threshold  Converged?
 Maximum Force            0.000120     0.000450     YES
 RMS     Force            0.000042     0.000300     YES
 Maximum Displacement     0.000685     0.001800     YES
 RMS     Displacement     0.000188     0.001200     YES
 Predicted change in Energy=-1.159888D-07
 Optimization completed.
    -- Stationary point found.
                         ----------------------------
                         !   Optimized Parameters   !
                         ! (Angstroms and Degrees)  !
 ------------------------                            -------------------------
 ! Name  Definition              Value          Derivative Info.             !
 -----------------------------------------------------------------------------
 ! R1    R(1,2)                  1.081          -DE/DX =    0.               !
 ! R2    R(2,4)                  1.3852         -DE/DX =    0.               !
 ! R3    R(2,9)                  1.3602         -DE/DX =   -0.0001           !
 ! R4    R(3,4)                  1.0805         -DE/DX =    0.               !
 ! R5    R(4,6)                  1.4055         -DE/DX =    0.0001           !
 ! R6    R(5,6)                  1.0819         -DE/DX =    0.               !
 ! R7    R(6,7)                  1.3482         -DE/DX =   -0.0001           !
 ! R8    R(7,9)                  1.3483         -DE/DX =   -0.0001           !
 ! R9    R(8,9)                  1.012          -DE/DX =    0.               !
 ! A1    A(1,2,4)              132.3978         -DE/DX =    0.               !
 ! A2    A(1,2,9)              121.886          -DE/DX =    0.               !
 ! A3    A(4,2,9)              105.7162         -DE/DX =    0.               !
 ! A4    A(2,4,3)              126.935          -DE/DX =    0.               !
 ! A5    A(2,4,6)              104.9147         -DE/DX =    0.               !
 ! A6    A(3,4,6)              128.1503         -DE/DX =    0.               !
 ! A7    A(4,6,5)              128.8518         -DE/DX =    0.0001           !
 ! A8    A(4,6,7)              112.0749         -DE/DX =   -0.0001           !
 ! A9    A(5,6,7)              119.0733         -DE/DX =    0.               !
 ! A10   A(6,7,9)              103.3822         -DE/DX =    0.0001           !
 ! A11   A(2,9,7)              113.9121         -DE/DX =    0.               !
 ! A12   A(2,9,8)              127.7615         -DE/DX =    0.               !
 ! A13   A(7,9,8)              118.3265         -DE/DX =    0.               !
 ! D1    D(1,2,4,3)              0.             -DE/DX =    0.               !
 ! D2    D(1,2,4,6)            180.             -DE/DX =    0.               !
 ! D3    D(9,2,4,3)            180.             -DE/DX =    0.               !
 ! D4    D(9,2,4,6)              0.             -DE/DX =    0.               !
 ! D5    D(1,2,9,7)            180.             -DE/DX =    0.               !
 ! D6    D(1,2,9,8)              0.             -DE/DX =    0.               !
 ! D7    D(4,2,9,7)              0.             -DE/DX =    0.               !
 ! D8    D(4,2,9,8)            180.             -DE/DX =    0.               !
 ! D9    D(2,4,6,5)            180.             -DE/DX =    0.               !
 ! D10   D(2,4,6,7)              0.             -DE/DX =    0.               !
 ! D11   D(3,4,6,5)              0.             -DE/DX =    0.               !
 ! D12   D(3,4,6,7)            180.             -DE/DX =    0.               !
 ! D13   D(4,6,7,9)              0.             -DE/DX =    0.               !
 ! D14   D(5,6,7,9)            180.             -DE/DX =    0.               !
 ! D15   D(6,7,9,2)              0.             -DE/DX =    0.               !
 ! D16   D(6,7,9,8)            180.             -DE/DX =    0.               !
 -----------------------------------------------------------------------------
 GradGradGradGradGradGradGradGradGradGradGradGradGradGradGradGradGradGrad

 1\1\GINC-QUANTUM\Freq\RMP2-FC\6-31G(d)\C3H4N2\RDJ3\18-Dec-1998\0\\#N G
 EOM=ALLCHECK GUESS=TCHECK RMP2(FC)/6-31G(D) FREQ\\1H pyrazole C3H4N2 c
 asno=288131\\0,1\H,-1.8982720987,0.,-1.1768183229\C,-0.9414832009,0.,-
 0.6736233409\H,0.6785201965,0.,-2.1771195772\C,0.3612811549,0.,-1.1442
 248586\H,2.2421248118,0.,0.0870994846\C,1.1629118569,0.,0.0101995182\N
 ,0.4256919694,0.,1.1389785931\H,-1.5963336426,0.,1.358933148\N,-0.8431
 631312,0.,0.6829924576\\Version=IBM-RS6000-G98RevA.4\State=1-A'\HF=-22
 4.7893298\MP2=-225.5035363\RMSD=1.565e-09\RMSF=7.062e-05\Dipole=-0.825
 1025,0.,-0.427484\DipoleDeriv=0.0008484,0.,-0.0412825,0.,0.1874098,0.,
 -0.0298575,0.,0.0756549,0.081185,0.,-0.1209858,0.,-0.1052302,0.,-0.236
 2307,0.,0.2069048,0.0962806,0.,0.0280325,0.,0.1638753,0.,0.0307759,0.,
 -0.016776,-0.2009025,0.,0.0323544,0.,-0.1980434,0.,-0.065799,0.,-0.020
 2526,-0.0391084,0.,-0.0093906,0.,0.1465699,0.,-0.0204812,0.,0.0800782,
 0.1848965,0.,0.0926183,0.,-0.0823039,0.,0.1964585,0.,0.0952813,0.01927
 7,0.,-0.1263956,0.,-0.2337001,0.,-0.0926199,0.,-0.4679978,0.225915,0.,
 -0.0524321,0.,0.332779,0.,-0.0410447,0.,0.2377953,-0.3683916,0.,0.1974
 814,0.,-0.2113566,0.,0.2587985,0.,-0.1906882\Polar=48.2016901,0.,16.72
 05295,-0.0294761,0.,44.0584604\PG=CS [SG(C3H4N2)]\NImag=0\\0.31308735,
 0.,0.01775394,0.13789184,0.,0.12566102,-0.30876345,0.,-0.11992680,0.87
 357226,0.,-0.01763526,0.,0.,0.09567503,-0.12991774,0.,-0.12292272,0.08
 872260,0.,0.68105554,0.00034058,0.,-0.00072084,0.00190894,0.,0.0266037
 1,0.07901110,0.,-0.00185206,0.,0.,-0.00522511,0.,0.,0.02056427,0.00029
 579,0.,-0.00014857,-0.00423251,0.,0.00042725,-0.09558698,0.,0.35749971
 ,-0.00670141,0.,0.01033457,-0.35448187,0.,0.09504661,-0.08570305,0.,0.
 08990754,0.65247576,0.,-0.00306309,0.,0.,-0.04761084,0.,0.,-0.02105321
 ,0.,0.,0.09658175,-0.01532517,0.,0.01314270,0.10290495,0.,-0.14187608,
 0.08725841,0.,-0.34521387,-0.10976197,0.,0.86010525,-0.00016451,0.,0.0
 0033077,-0.00071098,0.,-0.00111713,-0.00012338,0.,-0.00023130,-0.00456
 245,0.,0.00423996,0.38268729,0.,0.00099517,0.,0.,0.00545451,0.,0.,-0.0
 0133720,0.,0.,-0.00244527,0.,0.,0.02264607,-0.00113423,0.,0.00121347,-
 0.00309880,0.,-0.00609525,0.00079578,0.,0.00026536,-0.02326578,0.,0.00
 649077,0.02286702,0.,0.05822094,-0.00468418,0.,0.00495901,-0.05402248,
 0.,-0.00237257,0.01336448,0.,0.01259298,-0.19255313,0.,-0.11818998,-0.
 36398480,0.,-0.03390380,0.89296786,0.,0.00534049,0.,0.,0.00501828,0.,0
 .,-0.00595805,0.,0.,-0.05144138,0.,0.,-0.02504807,0.,0.,0.12140717,0.0
 0086766,0.,-0.00262482,-0.06416653,0.,0.01878756,-0.01649320,0.,-0.009
 34526,-0.09667390,0.,-0.25448318,-0.02497943,0.,-0.06169911,0.02108743
 ,0.,0.61935115,0.00071540,0.,-0.00001303,-0.05680363,0.,-0.04259657,-0
 .00212760,0.,-0.00119398,0.02380262,0.,0.03138296,-0.01207454,0.,0.029
 20572,-0.17585053,0.,0.14236053,0.53251836,0.,0.00697861,0.,0.,0.01744
 613,0.,0.,0.00746412,0.,0.,0.01667408,0.,0.,-0.00886140,0.,0.,-0.06749
 244,0.,0.,0.10279405,0.00259105,0.,-0.00584020,-0.02250919,0.,-0.05169
 547,-0.00638114,0.,-0.00381900,-0.02362587,0.,-0.07636963,-0.00343041,
 0.,0.00594333,0.08844241,0.,-0.28423798,-0.02722867,0.,0.53927537,-0.0
 0034117,0.,0.00032617,0.01002946,0.,-0.00655508,0.00081186,0.,-0.00009
 700,0.00210771,0.,-0.00320455,-0.00039736,0.,0.00159584,-0.00784830,0.
 ,-0.00617227,-0.02156692,0.,0.02536740,0.29473166,0.,-0.00115069,0.,0.
 ,-0.00938542,0.,0.,0.00236927,0.,0.,0.00345762,0.,0.,0.00241201,0.,0.,
 0.00468159,0.,0.,-0.01327273,0.,0.,0.01312216,-0.00051151,0.,0.0000941
 0,0.02570031,0.,-0.00546993,0.00133110,0.,0.00024384,-0.00280540,0.,-0
 .00757489,-0.00058188,0.,0.00108002,-0.00607590,0.,0.00131808,-0.01409
 406,0.,0.01511261,-0.20543561,0.,0.25262810,0.00651139,0.,-0.03318169,
 -0.11072825,0.,-0.02781384,-0.00748293,0.,-0.00145455,-0.03438418,0.,0
 .02069537,-0.00066927,0.,0.00693826,-0.10738892,0.,0.04416971,-0.28861
 315,0.,-0.03322558,-0.27752694,0.,0.20247294,0.82028224,0.,-0.00736711
 ,0.,0.,-0.04373730,0.,0.,0.00502797,0.,0.,0.00890035,0.,0.,0.00618416,
 0.,0.,0.01349241,0.,0.,-0.06173042,0.,0.,-0.00223382,0.,0.,0.08146375,
 0.00524230,0.,-0.00857499,-0.00339403,0.,-0.37221089,0.00319315,0.,0.0
 0009054,0.06084419,0.,-0.05422107,0.00290239,0.,-0.00541952,0.03346042
 ,0.,-0.02706645,-0.11782291,0.,-0.13836903,0.19417510,0.,-0.25743194,-
 0.17860062,0.,0.86320333\\-0.00000133,0.,0.00003333,0.00001126,0.,-0.0
 0013530,0.00002126,0.,-0.00000753,0.00003251,0.,0.00006028,-0.00001025
 ,0.,-0.00002024,-0.00008597,0.,-0.00013600,0.00010402,0.,0.00024188,0.
 00002957,0.,0.00001671,-0.00010108,0.,-0.00005313\\\@

 KNIGHT- SIRE, I'VE JUST RETURNED FROM THE FRONT
 KING-   HOW GOES THE BATTLE
 KNIGHT- THE SITUATION IS QUITE FLUID
 KING-   WHAT DOES *THAT* MEAN
 KNIGHT- WE'RE UP THE CREEK
                THE WIZARD OF ID
 Job cpu time:  0 days  0 hours 21 minutes 39.7 seconds.
 File lengths (MBytes):  RWF=  382 Int=    0 D2E=    0 Chk=    3 Scr=    1
 Normal termination of Gaussian 98.
