 Gaussian 98, Revision A.6,
 Gaussian 98:  IBM-RS6000-G98RevA.6 19-Oct-1998

 -----------------------
 #MP2/CEP-121G* opt freq
 -----------------------

 -------------------------------
 1H pyrazole C3H4N2 casno=288131
 -------------------------------
 Symbolic Z-matrix:
 Charge =  0 Multiplicity = 1

 SCF Done:  E(RHF) =  -38.0627289654     A.U. after   13 cycles
 E2 =    -0.6959675475D+00 EUMP2 =    -0.38758696512889D+02
 SCF Done:  E(RHF) =  -38.1154997763     A.U. after   13 cycles
 E2 =    -0.7089214446D+00 EUMP2 =    -0.38824421220828D+02
 SCF Done:  E(RHF) =  -38.1191800352     A.U. after   14 cycles
 E2 =    -0.7224985602D+00 EUMP2 =    -0.38841678595484D+02
 SCF Done:  E(RHF) =  -38.1193771829     A.U. after   11 cycles
 E2 =    -0.7225211147D+00 EUMP2 =    -0.38841898297622D+02
 SCF Done:  E(RHF) =  -38.1193839167     A.U. after   12 cycles
 E2 =    -0.7225740044D+00 EUMP2 =    -0.38841957921102D+02
 SCF Done:  E(RHF) =  -38.1193785488     A.U. after   10 cycles
 E2 =    -0.7225838341D+00 EUMP2 =    -0.38841962382875D+02
 Optimization completed.
    -- Stationary point found.
 Normal termination of Gaussian 98.

 -------------------------------------------------------
 #N Geom=AllCheck Guess=TCheck RMP2(FC)/CEP-121G(d) Freq
 -------------------------------------------------------

 1H pyrazole C3H4N2 casno=288131
 -------------------------------
 Redundant internal coordinates taken from checkpointfile:
 /wrk/rdj3/Gau-15288.chk
 Charge =  0 Multiplicity = 1

                         Standard orientation:
 ---------------------------------------------------------------------
 Center     Atomic     Atomic              Coordinates (Angstroms)
 Number     Number      Type              X           Y           Z
 ---------------------------------------------------------------------
    1          1             0        2.115873    0.714956    0.000000
    2          6             0        1.119267    0.291928    0.000000
    3          1             0        1.247601   -1.926534    0.000000
    4          6             0        0.650612   -1.024051    0.000000
    5          1             0       -1.512472   -1.689277    0.000000
    6          6             0       -0.761547   -0.908578    0.000000
    7          7             0       -1.168289    0.389234    0.000000
    8          1             0       -0.042887    2.097527    0.000000
    9          7             0        0.000000    1.083992    0.000000
 ---------------------------------------------------------------------

 SCF Done:  E(RHF) =  -38.1193785488     A.U. after    1 cycles
 E2 =    -0.7225838343D+00 EUMP2 =    -0.38841962383086D+02

  The electronic state is 1-A'.
 Alpha  occ. eigenvalues --   -1.37240  -1.09619  -1.05584  -0.82790  -0.79969
 Alpha  occ. eigenvalues --   -0.74120  -0.60687  -0.59784  -0.59204  -0.56349
 Alpha  occ. eigenvalues --   -0.45953  -0.36057  -0.34204
 Alpha virt. eigenvalues --    0.14121   0.15096   0.17651   0.18460   0.20262
 Alpha virt. eigenvalues --    0.21094   0.30427   0.31211   0.33075   0.34558
 Alpha virt. eigenvalues --    0.46324   0.46372   0.49641   0.51766   0.53910

  Exact polarizability:  50.586   1.990  50.380   0.000   0.000  24.764
 Approx polarizability:  47.555   0.677  49.014   0.000   0.000  26.505

                     1                      2                      3
                    A"                     A"                     A"
 Frequencies --   477.0477               610.5896               669.0253
 Red. masses --     1.9195                 3.9478                 2.5969
 Frc consts  --     0.2574                 0.8672                 0.6848
 IR Inten    --    37.5768                 0.0149                49.4118
 Raman Activ --     0.0000                 0.0000                 0.0000

                     4                      5                      6
                    A"                     A"                     A"
 Frequencies --   693.9239               782.5953               798.7379
 Red. masses --     1.2114                 1.1252                 1.1648
 Frc consts  --     0.3437                 0.4060                 0.4378
 IR Inten    --    53.5073                79.2626                 8.7683
 Raman Activ --     0.0000                 0.0000                 0.0000

                     7                      8                      9
                    A'                     A'                     A'
 Frequencies --   904.3935               920.4178              1057.7186
 Red. masses --     5.1105                 4.2935                 1.6071
 Frc consts  --     2.4628                 2.1430                 1.0593
 IR Inten    --     8.5876                 1.5719                30.9446
 Raman Activ --     0.0000                 0.0000                 0.0000

                    10                     11                     12
                    A'                     A'                     A'
 Frequencies --  1063.3108              1152.0543              1175.6032
 Red. masses --     1.4245                 2.0678                 2.6129
 Frc consts  --     0.9489                 1.6170                 2.1276
 IR Inten    --    14.7836                13.0149                 1.0191
 Raman Activ --     0.0000                 0.0000                 0.0000

                    13                     14                     15
                    A'                     A'                     A'
 Frequencies --  1277.3606              1364.7650              1446.6135
 Red. masses --     1.7528                 2.4570                 3.8970
 Frc consts  --     1.6850                 2.6963                 4.8050
 IR Inten    --     1.8630                 2.9015                11.6037
 Raman Activ --     0.0000                 0.0000                 0.0000

                    16                     17                     18
                    A'                     A'                     A'
 Frequencies --  1491.4843              1536.3780              3275.4140
 Red. masses --     2.9636                 2.7305                 1.0913
 Frc consts  --     3.8842                 3.7974                 6.8979
 IR Inten    --     6.6022                 4.5121                 1.5852
 Raman Activ --     0.0000                 0.0000                 0.0000

                    19                     20                     21
                    A'                     A'                     A'
 Frequencies --  3283.1922              3300.4025              3660.3125
 Red. masses --     1.0968                 1.1082                 1.0831
 Frc consts  --     6.9656                 7.1119                 8.5494
 IR Inten    --     3.0156                 0.9909                84.3661
 Raman Activ --     0.0000                 0.0000                 0.0000

 - Thermochemistry -
 -------------------
 Temperature   298.150 Kelvin.  Pressure   1.00000 Atm.
 Atom  1 has atomic number  1 and mass   1.00783

 Molecular mass:    68.03745 amu.
 Principal axes and moments of inertia in atomic units:
                           1         2         3
     EIGENVALUES --   190.63195 195.54191 386.17387
           X            0.89573   0.44459   0.00000
           Y           -0.44459   0.89573   0.00000
           Z            0.00000   0.00000   1.00000
 THIS MOLECULE IS AN ASYMMETRIC TOP.
 ROTATIONAL SYMMETRY NUMBER  1.
 ROTATIONAL TEMPERATURES (KELVIN)      0.45435     0.44294     0.22429
 ROTATIONAL CONSTANTS (GHZ)            9.46715     9.22943     4.67339
 Zero-point vibrational energy     185070.3 (Joules/Mol)
                                   44.23287 (Kcal/Mol)
 WARNING-- EXPLICIT CONSIDERATION OF   2 DEGREES OF FREEDOM AS
           VIBRATIONS MAY CAUSE SIGNIFICANT ERROR
 VIBRATIONAL TEMPERATURES:    686.36   878.50   962.57   998.40  1125.97
          (KELVIN)           1149.20  1301.21  1324.27  1521.81  1529.86
                             1657.54  1691.42  1837.83  1963.58  2081.34
                             2145.90  2210.49  4712.56  4723.75  4748.52
                             5266.34

 Zero-point correction=                           0.070490 (Hartree/Particle)
 Thermal correction to Energy=                    0.074358
 Thermal correction to Enthalpy=                  0.075302
 Thermal correction to Gibbs Free Energy=         0.044140
 Sum of electronic and zero-point Energies=            -38.771473
 Sum of electronic and thermal Energies=               -38.767605
 Sum of electronic and thermal Enthalpies=             -38.766661
 Sum of electronic and thermal Free Energies=          -38.797822

                     E (Thermal)             CV                S
                      KCAL/MOL        CAL/MOL-KELVIN    CAL/MOL-KELVIN
 TOTAL                   46.660             13.905             65.585
 ELECTRONIC               0.000              0.000              0.000
 TRANSLATIONAL            0.889              2.981             38.570
 ROTATIONAL               0.889              2.981             24.180
 VIBRATIONAL             44.883              7.944              2.835
 VIBRATION  1             0.834              1.301              0.718
 VIBRATION  2             0.970              1.009              0.432
                       Q            LOG10(Q)             LN(Q)
 TOTAL BOT       0.497823D-20        -20.302925        -46.749213
 TOTAL V=0       0.131767D+13         12.119806         27.906885
 VIB (BOT)       0.525453D-32        -32.279466        -74.326218
 VIB (BOT)  1    0.351475D+00         -0.454105         -1.045615
 VIB (BOT)  2    0.241885D+00         -0.616391         -1.419294
 VIB (V=0)       0.139080D+01          0.143265          0.329880
 VIB (V=0)  1    0.111118D+01          0.045782          0.105418
 VIB (V=0)  2    0.105544D+01          0.023432          0.053953
 ELECTRONIC      0.100000D+01          0.000000          0.000000
 TRANSLATIONAL   0.220588D+08          7.343582         16.909224
 ROTATIONAL      0.429495D+05          4.632959         10.667781
 ***** Axes restored to original set *****
 -------------------------------------------------------------------
 Center     Atomic                   Forces (Hartrees/Bohr)
 Number     Number              X              Y              Z
 -------------------------------------------------------------------
    1          1          -0.000090806    0.000000000   -0.000062742
    2          6          -0.000009199    0.000000000    0.000468029
    3          1           0.000042732    0.000000000   -0.000058133
    4          6          -0.000000302    0.000000000    0.000033371
    5          1           0.000122982    0.000000000    0.000057184
    6          6          -0.000304291    0.000000000    0.000320200
    7          7           0.000480824    0.000000000   -0.000204348
    8          1           0.000075487    0.000000000    0.000091634
    9          7          -0.000317427    0.000000000   -0.000645195
 -------------------------------------------------------------------
 Cartesian Forces:  Max     0.000645195 RMS     0.000215616

 GradGradGradGradGradGradGradGradGradGradGradGradGradGradGradGradGradGrad
 Berny optimization.
 Internal  Forces:  Max     0.000433287 RMS     0.000115853
 Search for a local minimum.
 Step number   1 out of a maximum of  48
 All quantities printed in internal units (Hartrees-Bohrs-Radians)
 Second derivative matrix not updated -- analytic derivatives used.
     Eigenvalues ---    0.00589   0.00937   0.01330   0.02545   0.05472
     Eigenvalues ---    0.05761   0.09343   0.10360   0.10937   0.11785
     Eigenvalues ---    0.22649   0.27340   0.34817   0.36920   0.37906
     Eigenvalues ---    0.37992   0.38313   0.43978   0.47438   0.48342
     Eigenvalues ---    0.531911000.000001000.000001000.000001000.00000
     Eigenvalues --- 1000.000001000.000001000.000001000.000001000.00000
     Eigenvalues --- 1000.000001000.000001000.000001000.000001000.00000
     Eigenvalues --- 1000.000001000.000001000.00000
 Angle between quadratic step and forces=  33.52 degrees.
 Linear search not attempted -- first point.
 Iteration  1 RMS(Cart)=  0.00034824 RMS(Int)=  0.00000021
 Iteration  2 RMS(Cart)=  0.00000020 RMS(Int)=  0.00000000
 Variable       Old X    -DE/DX   Delta X   Delta X   Delta X     New X
                                 (Linear)    (Quad)   (Total)
    R1        2.04595   0.00011   0.00000   0.00029   0.00029   2.04624
    R2        2.63983   0.00010   0.00000   0.00026   0.00026   2.64009
    R3        2.59115  -0.00040   0.00000  -0.00097  -0.00097   2.59018
    R4        2.04481   0.00007   0.00000   0.00018   0.00018   2.04499
    R5        2.67750   0.00005   0.00000   0.00018   0.00018   2.67768
    R6        2.04700   0.00013   0.00000   0.00036   0.00036   2.04736
    R7        2.57014  -0.00043   0.00000  -0.00100  -0.00100   2.56913
    R8        2.56863   0.00027   0.00000   0.00083   0.00083   2.56946
    R9        1.91702   0.00001   0.00000  -0.00001  -0.00001   1.91701
    A1        2.31434   0.00002   0.00000  -0.00034  -0.00034   2.31400
    A2        2.12432   0.00005   0.00000   0.00029   0.00029   2.12461
    A3        1.84452  -0.00006   0.00000   0.00004   0.00004   1.84457
    A4        2.21506   0.00002   0.00000   0.00025   0.00025   2.21530
    A5        1.83133   0.00002   0.00000  -0.00013  -0.00013   1.83120
    A6        2.23680  -0.00003   0.00000  -0.00012  -0.00012   2.23668
    A7        2.25517   0.00005   0.00000   0.00020   0.00020   2.25537
    A8        1.95610  -0.00001   0.00000   0.00011   0.00011   1.95621
    A9        2.07192  -0.00004   0.00000  -0.00031  -0.00031   2.07161
   A10        1.80358   0.00001   0.00000  -0.00001  -0.00001   1.80357
   A11        1.98924   0.00004   0.00000  -0.00002  -0.00002   1.98923
   A12        2.22894   0.00009   0.00000   0.00116   0.00116   2.23010
   A13        2.06501  -0.00014   0.00000  -0.00115  -0.00115   2.06386
    D1        0.00000   0.00000   0.00000   0.00000   0.00000   0.00000
    D2        3.14159   0.00000   0.00000   0.00000   0.00000   3.14159
    D3        3.14159   0.00000   0.00000   0.00000   0.00000   3.14159
    D4        0.00000   0.00000   0.00000   0.00000   0.00000   0.00000
    D5        3.14159   0.00000   0.00000   0.00000   0.00000   3.14159
    D6        0.00000   0.00000   0.00000   0.00000   0.00000   0.00000
    D7        0.00000   0.00000   0.00000   0.00000   0.00000   0.00000
    D8        3.14159   0.00000   0.00000   0.00000   0.00000   3.14159
    D9        3.14159   0.00000   0.00000   0.00000   0.00000   3.14159
   D10        0.00000   0.00000   0.00000   0.00000   0.00000   0.00000
   D11        0.00000   0.00000   0.00000   0.00000   0.00000   0.00000
   D12        3.14159   0.00000   0.00000   0.00000   0.00000   3.14159
   D13        0.00000   0.00000   0.00000   0.00000   0.00000   0.00000
   D14        3.14159   0.00000   0.00000   0.00000   0.00000   3.14159
   D15        0.00000   0.00000   0.00000   0.00000   0.00000   0.00000
   D16        3.14159   0.00000   0.00000   0.00000   0.00000   3.14159
         Item               Value     Threshold  Converged?
 Maximum Force            0.000433     0.000450     YES
 RMS     Force            0.000116     0.000300     YES
 Maximum Displacement     0.001045     0.001800     YES
 RMS     Displacement     0.000348     0.001200     YES
 Predicted change in Energy=-7.348000D-07
 Optimization completed.
    -- Stationary point found.
                         ----------------------------
                         !   Optimized Parameters   !
                         ! (Angstroms and Degrees)  !
 ------------------------                            -------------------------
 ! Name  Definition              Value          Derivative Info.             !
 -----------------------------------------------------------------------------
 ! R1    R(1,2)                  1.0827         -DE/DX =    0.0001           !
 ! R2    R(2,4)                  1.3969         -DE/DX =    0.0001           !
 ! R3    R(2,9)                  1.3712         -DE/DX =   -0.0004           !
 ! R4    R(3,4)                  1.0821         -DE/DX =    0.0001           !
 ! R5    R(4,6)                  1.4169         -DE/DX =    0.0001           !
 ! R6    R(5,6)                  1.0832         -DE/DX =    0.0001           !
 ! R7    R(6,7)                  1.3601         -DE/DX =   -0.0004           !
 ! R8    R(7,9)                  1.3593         -DE/DX =    0.0003           !
 ! R9    R(8,9)                  1.0144         -DE/DX =    0.               !
 ! A1    A(1,2,4)              132.6019         -DE/DX =    0.               !
 ! A2    A(1,2,9)              121.7147         -DE/DX =    0.               !
 ! A3    A(4,2,9)              105.6835         -DE/DX =   -0.0001           !
 ! A4    A(2,4,3)              126.9134         -DE/DX =    0.               !
 ! A5    A(2,4,6)              104.9275         -DE/DX =    0.               !
 ! A6    A(3,4,6)              128.1592         -DE/DX =    0.               !
 ! A7    A(4,6,5)              129.2116         -DE/DX =    0.0001           !
 ! A8    A(4,6,7)              112.076          -DE/DX =    0.               !
 ! A9    A(5,6,7)              118.7123         -DE/DX =    0.               !
 ! A10   A(6,7,9)              103.3378         -DE/DX =    0.               !
 ! A11   A(2,9,7)              113.9753         -DE/DX =    0.               !
 ! A12   A(2,9,8)              127.7086         -DE/DX =    0.0001           !
 ! A13   A(7,9,8)              118.3161         -DE/DX =   -0.0001           !
 ! D1    D(1,2,4,3)              0.             -DE/DX =    0.               !
 ! D2    D(1,2,4,6)            180.             -DE/DX =    0.               !
 ! D3    D(9,2,4,3)            180.             -DE/DX =    0.               !
 ! D4    D(9,2,4,6)              0.             -DE/DX =    0.               !
 ! D5    D(1,2,9,7)            180.             -DE/DX =    0.               !
 ! D6    D(1,2,9,8)              0.             -DE/DX =    0.               !
 ! D7    D(4,2,9,7)              0.             -DE/DX =    0.               !
 ! D8    D(4,2,9,8)            180.             -DE/DX =    0.               !
 ! D9    D(2,4,6,5)            180.             -DE/DX =    0.               !
 ! D10   D(2,4,6,7)              0.             -DE/DX =    0.               !
 ! D11   D(3,4,6,5)              0.             -DE/DX =    0.               !
 ! D12   D(3,4,6,7)            180.             -DE/DX =    0.               !
 ! D13   D(4,6,7,9)              0.             -DE/DX =    0.               !
 ! D14   D(5,6,7,9)            180.             -DE/DX =    0.               !
 ! D15   D(6,7,9,2)              0.             -DE/DX =    0.               !
 ! D16   D(6,7,9,8)            180.             -DE/DX =    0.               !
 -----------------------------------------------------------------------------
 GradGradGradGradGradGradGradGradGradGradGradGradGradGradGradGradGradGrad

 1\1\GINC-INDIUM\Freq\RMP2-FC\CEP-121G(d)\C3H4N2\RDJ3\10-Nov-2000\0\\#N
  GEOM=ALLCHECK GUESS=TCHECK RMP2(FC)/CEP-121G(D) FREQ\\1H pyrazole C3H
 4N2 casno=288131\\0,1\H,-1.8969667907,0.,-1.1788111078\C,-0.9368716817
 ,0.,-0.6784194972\H,0.6940497569,0.,-2.1877695976\C,0.3769015037,0.,-1
 .1532223947\H,2.2654932911,0.,0.0936466299\C,1.1854792205,0.,0.0102762
 989\N,0.4422236084,0.,1.1492785644\H,-1.5918861762,0.,1.3665128123\N,-
 0.8367688586,0.,0.6890981626\\Version=IBM-RS6000-G98RevA.6\State=1-A'\
 HF=-38.1193785\MP2=-38.8419624\RMSD=1.045e-09\RMSF=2.156e-04\Dipole=-0
 .8402792,0.,-0.4233975\DipoleDeriv=-0.0084436,0.,-0.0501438,0.,0.21880
 12,0.,-0.0381489,0.,0.0726022,0.0667794,0.,-0.1619081,0.,-0.1571967,0.
 ,-0.2531199,0.,0.2400779,0.098249,0.,0.034352,0.,0.1961657,0.,0.035396
 6,0.,-0.0342754,-0.1654426,0.,0.0447037,0.,-0.2282027,0.,-0.0553584,0.
 ,-0.0340963,-0.0458784,0.,-0.0033397,0.,0.1773468,0.,-0.0266617,0.,0.0
 827768,0.168306,0.,0.071959,0.,-0.137939,0.,0.1924816,0.,0.1293216,0.0
 406481,0.,-0.1022034,0.,-0.2137398,0.,-0.1086285,0.,-0.464818,0.214530
 1,0.,-0.0535354,0.,0.3305567,0.,-0.0362455,0.,0.2249749,-0.368748,0.,0
 .2201156,0.,-0.1857923,0.,0.2902848,0.,-0.2165639\Polar=52.4154335,0.,
 24.7640585,0.4826097,0.,48.5496265\PG=CS [SG(C3H4N2)]\NImag=0\\0.30752
 714,0.,0.01649879,0.13500887,0.,0.12159124,-0.30496541,0.,-0.11777344,
 0.84183922,0.,-0.01600505,0.,0.,0.09034307,-0.12827010,0.,-0.11923913,
 0.09101999,0.,0.64633154,0.00029246,0.,-0.00082146,0.00219145,0.,0.025
 33670,0.07638790,0.,-0.00185252,0.,0.,-0.00396552,0.,0.,0.02008630,0.0
 0026656,0.,-0.00025719,-0.00509814,0.,0.00114557,-0.09389000,0.,0.3507
 1632,-0.00485539,0.,0.01021837,-0.33308017,0.,0.08960389,-0.08285843,0
 .,0.08910829,0.61561008,0.,-0.00254672,0.,0.,-0.04905790,0.,0.,-0.0213
 0717,0.,0.,0.09599261,-0.01483495,0.,0.01248006,0.09398507,0.,-0.13464
 810,0.08634144,0.,-0.34059518,-0.10865562,0.,0.83029716,-0.00017222,0.
 ,0.00029975,-0.00063762,0.,-0.00113556,-0.00019582,0.,-0.00021319,-0.0
 0309994,0.,0.00501145,0.37580099,0.,0.00121798,0.,0.,0.00443919,0.,0.,
 -0.00118334,0.,0.,-0.00263429,0.,0.,0.02072940,-0.00115319,0.,0.001215
 41,-0.00323562,0.,-0.00630598,0.00085211,0.,0.00023624,-0.02180344,0.,
 0.00659524,0.02389886,0.,0.05591437,-0.00479383,0.,0.00513338,-0.05277
 224,0.,-0.00383241,0.01283901,0.,0.01252450,-0.18439995,0.,-0.10962117
 ,-0.35968272,0.,-0.03508747,0.86545985,0.,0.00410208,0.,0.,0.00938593,
 0.,0.,-0.00550504,0.,0.,-0.04992086,0.,0.,-0.02180251,0.,0.,0.11089000
 ,0.00092462,0.,-0.00244191,-0.06034206,0.,0.01672869,-0.01597691,0.,-0
 .00790743,-0.09105687,0.,-0.23994177,-0.02548158,0.,-0.05956003,0.0247
 1192,0.,0.58293199,0.00065740,0.,-0.00000779,-0.05332643,0.,-0.0405221
 9,-0.00198449,0.,-0.00114948,0.02330106,0.,0.02943713,-0.01105243,0.,0
 .02792882,-0.16667885,0.,0.13190168,0.51092831,0.,0.00698947,0.,0.,0.0
 1430754,0.,0.,0.00746057,0.,0.,0.01495870,0.,0.,-0.00904740,0.,0.,-0.0
 6150913,0.,0.,0.09489442,0.00265633,0.,-0.00580139,-0.02118516,0.,-0.0
 4739296,-0.00658767,0.,-0.00374967,-0.02126620,0.,-0.07314849,-0.00471
 408,0.,0.00617975,0.07968734,0.,-0.26682131,-0.02009336,0.,0.51085805,
 -0.00034227,0.,0.00041147,0.00999256,0.,-0.00680490,0.00079236,0.,-0.0
 0007792,0.00207282,0.,-0.00319553,-0.00035776,0.,0.00166661,-0.0077545
 1,0.,-0.00628987,-0.01936769,0.,0.02496982,0.29163825,0.,-0.00112731,0
 .,0.,-0.00879216,0.,0.,0.00266266,0.,0.,0.00199191,0.,0.,0.00260509,0.
 ,0.,0.00460323,0.,0.,-0.01337166,0.,0.,0.01178238,-0.00041536,0.,0.000
 15898,0.02439501,0.,-0.00460472,0.00127131,0.,0.00023758,-0.00290635,0
 .,-0.00732833,-0.00056439,0.,0.00109705,-0.00621246,0.,0.00118021,-0.0
 1374932,0.,0.01467952,-0.20449099,0.,0.24837690,0.00665213,0.,-0.03246
 914,-0.10924136,0.,-0.02539543,-0.00746442,0.,-0.00147061,-0.03269009,
 0.,0.02153219,-0.00060247,0.,0.00693332,-0.10221675,0.,0.04160907,-0.2
 8247687,0.,-0.03346702,-0.27667376,0.,0.20267256,0.80471359,0.,-0.0072
 7672,0.,0.,-0.04065510,0.,0.,0.00360408,0.,0.,0.01252372,0.,0.,0.00567
 589,0.,0.,0.00975631,0.,0.,-0.05468251,0.,0.,-0.00035412,0.,0.,0.07140
 846,0.00581723,0.,-0.00770605,-0.00176566,0.,-0.35201490,0.00347448,0.
 ,0.00017378,0.05675794,0.,-0.05371060,0.00289874,0.,-0.00537204,0.0326
 9638,0.,-0.02416843,-0.11374548,0.,-0.13480348,0.19381131,0.,-0.253797
 19,-0.17994494,0.,0.83139892\\0.00009081,0.,0.00006274,0.00000920,0.,-
 0.00046803,-0.00004273,0.,0.00005813,0.00000030,0.,-0.00003337,-0.0001
 2298,0.,-0.00005718,0.00030429,0.,-0.00032020,-0.00048082,0.,0.0002043
 5,-0.00007549,0.,-0.00009163,0.00031743,0.,0.00064520\\\@

 THE POLHOLDE ROLLS WITHOUT SLIPPING ON THE HERPOLHOLDE LYING IN
 THE INVARIABLE PLANE.
 H.GOLDSTEIN, "CLASSICAL MECHANICS", PG 161
 Job cpu time:  0 days  0 hours 26 minutes 21.8 seconds.
 File lengths (MBytes):  RWF=  553 Int=    0 D2E=    0 Chk=    9 Scr=    1
 Normal termination of Gaussian 98.
