 Gaussian 98, Revision A.4,
 Gaussian 98:  x86-Linux-G98RevA.4 11-Sep-1998

 -------------------
 #MP2/3-21G opt freq
 -------------------

 -------------------------------
 1H pyrazole C3H4N2 casno=288131
 -------------------------------
 Symbolic Z-matrix:
 Charge =  0 Multiplicity = 1

 SCF Done:  E(RHF) =  -223.462889754     A.U. after   14 cycles
 E2 =    -0.4538748217D+00 EUMP2 =    -0.22391676457619D+03
 SCF Done:  E(RHF) =  -223.515805955     A.U. after   14 cycles
 E2 =    -0.4719172030D+00 EUMP2 =    -0.22398772315828D+03
 SCF Done:  E(RHF) =  -223.517610024     A.U. after   14 cycles
 E2 =    -0.4925379789D+00 EUMP2 =    -0.22401014800315D+03
 SCF Done:  E(RHF) =  -223.518228352     A.U. after   12 cycles
 E2 =    -0.4926433798D+00 EUMP2 =    -0.22401087173212D+03
 SCF Done:  E(RHF) =  -223.518242675     A.U. after   13 cycles
 E2 =    -0.4929135211D+00 EUMP2 =    -0.22401115619625D+03
 SCF Done:  E(RHF) =  -223.518217786     A.U. after   11 cycles
 E2 =    -0.4929711934D+00 EUMP2 =    -0.22401118897962D+03
 SCF Done:  E(RHF) =  -223.518286604     A.U. after   11 cycles
 E2 =    -0.4929113687D+00 EUMP2 =    -0.22401119797321D+03
 SCF Done:  E(RHF) =  -223.518365709     A.U. after   10 cycles
 E2 =    -0.4928337929D+00 EUMP2 =    -0.22401119950173D+03
 Optimization completed.
    -- Stationary point found.
 Normal termination of Gaussian 98.

 -------------------------------------------------
 #N Geom=AllCheck Guess=TCheck RMP2(FC)/3-21G Freq
 -------------------------------------------------

 1H pyrazole C3H4N2 casno=288131
 -------------------------------
 Redundant internal coordinates taken from checkpointfile:
 /wrk/rdj3/Gau-31507.chk
 Charge =  0 Multiplicity = 1

                         Standard orientation:
 ---------------------------------------------------------------------
 Center     Atomic     Atomic              Coordinates (Angstroms)
 Number     Number      Type              X           Y           Z
 ---------------------------------------------------------------------
    1          1             0        2.127041    0.734702    0.000000
    2          6             0        1.129845    0.322565    0.000000
    3          1             0        1.297484   -1.886646    0.000000
    4          6             0        0.684658   -0.999638    0.000000
    5          1             0       -1.447968   -1.738890    0.000000
    6          6             0       -0.735971   -0.929004    0.000000
    7          7             0       -1.197895    0.365456    0.000000
    8          1             0       -0.062488    2.129396    0.000000
    9          7             0        0.000000    1.119958    0.000000
 ---------------------------------------------------------------------

 SCF Done:  E(RHF) =  -223.518365709     A.U. after    1 cycles
 E2 =    -0.4928337940D+00 EUMP2 =    -0.22401119950283D+03

  The electronic state is 1-A'.
 Alpha  occ. eigenvalues --  -15.56646 -15.52562 -11.23621 -11.20787 -11.17505
 Alpha  occ. eigenvalues --   -1.34551  -1.09003  -1.04147  -0.82192  -0.78386
 Alpha  occ. eigenvalues --   -0.73912  -0.60459  -0.58743  -0.57926  -0.56536
 Alpha  occ. eigenvalues --   -0.44715  -0.36612  -0.33924
 Alpha virt. eigenvalues --    0.16220   0.24151   0.25771   0.30221   0.33306
 Alpha virt. eigenvalues --    0.34386   0.40317   0.41622   0.50431   0.64725
 Alpha virt. eigenvalues --    0.66307   0.93302   0.97791   0.98310   0.99875

  Exact polarizability:  42.494   2.566  44.744   0.000   0.000  11.729
 Approx polarizability:  43.596   0.290  46.251   0.000   0.000  10.559

                     1                      2                      3
                    A"                     A"                     A"
 Frequencies --   564.5125               649.5303               681.4151
 Red. masses --     2.1571                 2.3214                 2.2975
 Frc consts  --     0.4050                 0.5770                 0.6285
 IR Inten    --    76.5482                 0.3975                36.7948
 Raman Activ --     0.0000                 0.0000                 0.0000

                     4                      5                      6
                    A"                     A"                     A"
 Frequencies --   746.3445               825.5632               865.1084
 Red. masses --     1.2545                 1.1959                 1.2910
 Frc consts  --     0.4117                 0.4802                 0.5693
 IR Inten    --    91.3575                18.6942                10.4988
 Raman Activ --     0.0000                 0.0000                 0.0000

                     7                      8                      9
                    A'                     A'                     A'
 Frequencies --   922.6939               945.4809               977.3204
 Red. masses --     5.7108                 5.2132                 3.3068
 Frc consts  --     2.8646                 2.7458                 1.8609
 IR Inten    --    13.7539                 4.2620                 4.3586
 Raman Activ --     0.0000                 0.0000                 0.0000

                    10                     11                     12
                    A'                     A'                     A'
 Frequencies --  1061.4874              1120.9947              1152.0356
 Red. masses --     1.9311                 2.5164                 1.8706
 Frc consts  --     1.2820                 1.8631                 1.4627
 IR Inten    --     8.6680                14.5431                 3.4720
 Raman Activ --     0.0000                 0.0000                 0.0000

                    13                     14                     15
                    A'                     A'                     A'
 Frequencies --  1187.0095              1352.1780              1406.6534
 Red. masses --     2.7995                 1.4944                 2.1221
 Frc consts  --     2.3240                 1.6098                 2.4739
 IR Inten    --     2.5090                 2.7333                11.5866
 Raman Activ --     0.0000                 0.0000                 0.0000

                    16                     17                     18
                    A'                     A'                     A'
 Frequencies --  1434.2214              1513.4112              3288.9133
 Red. masses --     2.1039                 2.1559                 1.0910
 Frc consts  --     2.5498                 2.9093                 6.9532
 IR Inten    --    11.9019                15.1090                 0.5863
 Raman Activ --     0.0000                 0.0000                 0.0000

                    19                     20                     21
                    A'                     A'                     A'
 Frequencies --  3297.3981              3318.3620              3624.2174
 Red. masses --     1.0952                 1.1053                 1.0834
 Frc consts  --     7.0159                 7.1710                 8.3843
 IR Inten    --     3.0136                 0.2408                99.7892
 Raman Activ --     0.0000                 0.0000                 0.0000

 - Thermochemistry -
 -------------------
 Temperature   298.150 Kelvin.  Pressure   1.00000 Atm.
 Atom  1 has atomic number  1 and mass   1.00783

 Molecular mass:    68.03745 amu.
 Principal axes and moments of inertia in atomic units:
                           1         2         3
     EIGENVALUES --   195.42003 199.64039 395.06042
           X            0.97963   0.20082   0.00000
           Y           -0.20082   0.97963   0.00000
           Z            0.00000   0.00000   1.00000
 THIS MOLECULE IS AN ASYMMETRIC TOP.
 ROTATIONAL SYMMETRY NUMBER  1.
 ROTATIONAL TEMPERATURES (KELVIN)      0.44322     0.43385     0.21924
 ROTATIONAL CONSTANTS (GHZ)            9.23519     9.03996     4.56827
 Zero-point vibrational energy     185031.5 (Joules/Mol)
                                   44.22360 (Kcal/Mol)
 WARNING-- EXPLICIT CONSIDERATION OF   1 DEGREES OF FREEDOM AS
           VIBRATIONS MAY CAUSE SIGNIFICANT ERROR
 VIBRATIONAL TEMPERATURES:    812.20   934.52   980.40  1073.82  1187.79
          (KELVIN)           1244.69  1327.54  1360.33  1406.14  1527.23
                             1612.85  1657.51  1707.83  1945.47  2023.85
                             2063.51  2177.45  4731.99  4744.19  4774.36
                             5214.41

 Zero-point correction=                           0.070475 (Hartree/Particle)
 Thermal correction to Energy=                    0.074224
 Thermal correction to Enthalpy=                  0.075168
 Thermal correction to Gibbs Free Energy=         0.044154
 Sum of electronic and zero-point Energies=           -223.940725
 Sum of electronic and thermal Energies=              -223.936976
 Sum of electronic and thermal Enthalpies=            -223.936032
 Sum of electronic and thermal Free Energies=         -223.967045

                     E (Thermal)             CV                S
                      KCAL/MOL        CAL/MOL-KELVIN    CAL/MOL-KELVIN
 TOTAL                   46.576             13.502             65.274
 ELECTRONIC               0.000              0.000              0.000
 TRANSLATIONAL            0.889              2.981             38.570
 ROTATIONAL               0.889              2.981             24.248
 VIBRATIONAL             44.799              7.540              2.456
 VIBRATION  1             0.920              1.108              0.515
                       Q            LOG10(Q)             LN(Q)
 TOTAL BOT       0.490556D-20        -20.309311        -46.763918
 TOTAL V=0       0.127826D+13         12.106620         27.876522
 VIB (BOT)       0.500399D-32        -32.300684        -74.375073
 VIB (BOT)  1    0.274112D+00         -0.562072         -1.294218
 VIB (V=0)       0.130391D+01          0.115247          0.265367
 VIB (V=0)  1    0.107021D+01          0.029468          0.067853
 ELECTRONIC      0.100000D+01          0.000000          0.000000
 TRANSLATIONAL   0.220588D+08          7.343582         16.909224
 ROTATIONAL      0.444416D+05          4.647790         10.701932
 ***** Axes restored to original set *****
 -------------------------------------------------------------------
 Center     Atomic                   Forces (Hartrees/Bohr)
 Number     Number              X              Y              Z
 -------------------------------------------------------------------
    1          1           0.000047956    0.000000000   -0.000025197
    2          6          -0.000190524    0.000000000    0.000172288
    3          1          -0.000046064    0.000000000    0.000041272
    4          6           0.000076237    0.000000000   -0.000195271
    5          1          -0.000037325    0.000000000   -0.000041691
    6          6           0.000047893    0.000000000    0.000236962
    7          7          -0.000034462    0.000000000   -0.000068134
    8          1          -0.000015327    0.000000000   -0.000033168
    9          7           0.000151616    0.000000000   -0.000087061
 -------------------------------------------------------------------
 Cartesian Forces:  Max     0.000236962 RMS     0.000089441

 GradGradGradGradGradGradGradGradGradGradGradGradGradGradGradGradGradGrad
 Berny optimization.
 Internal  Forces:  Max     0.000113896 RMS     0.000041770
 Search for a local minimum.
 Step number   1 out of a maximum of  48
 All quantities printed in internal units (Hartrees-Bohrs-Radians)
 Second derivative matrix not updated -- analytic derivatives used.
     Eigenvalues ---    0.00809   0.01126   0.01589   0.02729   0.06067
     Eigenvalues ---    0.06370   0.10172   0.11090   0.11168   0.12046
     Eigenvalues ---    0.20635   0.24684   0.29780   0.32077   0.37962
     Eigenvalues ---    0.38309   0.38461   0.41663   0.44615   0.46770
     Eigenvalues ---    0.518311000.000001000.000001000.000001000.00000
     Eigenvalues --- 1000.000001000.000001000.000001000.000001000.00000
     Eigenvalues --- 1000.000001000.000001000.000001000.000001000.00000
     Eigenvalues --- 1000.000001000.000001000.00000
 Angle between quadratic step and forces=  29.19 degrees.
 Linear search not attempted -- first point.
 Iteration  1 RMS(Cart)=  0.00016144 RMS(Int)=  0.00000003
 Iteration  2 RMS(Cart)=  0.00000003 RMS(Int)=  0.00000000
 Variable       Old X    -DE/DX   Delta X   Delta X   Delta X     New X
                                 (Linear)    (Quad)   (Total)
    R1        2.03903  -0.00003   0.00000  -0.00008  -0.00008   2.03895
    R2        2.63643   0.00007   0.00000   0.00025   0.00025   2.63668
    R3        2.61328  -0.00011   0.00000  -0.00033  -0.00033   2.61295
    R4        2.03735  -0.00005   0.00000  -0.00014  -0.00014   2.03720
    R5        2.68792   0.00011   0.00000   0.00036   0.00036   2.68828
    R6        2.03780  -0.00004   0.00000  -0.00010  -0.00010   2.03770
    R7        2.59726  -0.00008   0.00000  -0.00025  -0.00025   2.59701
    R8        2.67530  -0.00005   0.00000  -0.00026  -0.00026   2.67504
    R9        1.91121  -0.00001   0.00000  -0.00002  -0.00002   1.91119
    A1        2.28749  -0.00003   0.00000  -0.00044  -0.00044   2.28705
    A2        2.13510   0.00006   0.00000   0.00047   0.00047   2.13557
    A3        1.86060  -0.00003   0.00000  -0.00004  -0.00004   1.86056
    A4        2.21223  -0.00001   0.00000  -0.00017  -0.00017   2.21205
    A5        1.84589  -0.00004   0.00000  -0.00019  -0.00019   1.84571
    A6        2.22506   0.00005   0.00000   0.00036   0.00036   2.22543
    A7        2.24228  -0.00003   0.00000  -0.00038  -0.00038   2.24190
    A8        1.96324  -0.00001   0.00000  -0.00003  -0.00003   1.96321
    A9        2.07767   0.00005   0.00000   0.00041   0.00041   2.07807
   A10        1.79012   0.00000   0.00000   0.00005   0.00005   1.79016
   A11        1.96493   0.00007   0.00000   0.00021   0.00021   1.96514
   A12        2.24720  -0.00007   0.00000  -0.00038  -0.00038   2.24682
   A13        2.07106   0.00000   0.00000   0.00018   0.00018   2.07123
    D1        0.00000   0.00000   0.00000   0.00000   0.00000   0.00000
    D2        3.14159   0.00000   0.00000   0.00000   0.00000   3.14159
    D3        3.14159   0.00000   0.00000   0.00000   0.00000   3.14159
    D4        0.00000   0.00000   0.00000   0.00000   0.00000   0.00000
    D5        3.14159   0.00000   0.00000   0.00000   0.00000   3.14159
    D6        0.00000   0.00000   0.00000   0.00000   0.00000   0.00000
    D7        0.00000   0.00000   0.00000   0.00000   0.00000   0.00000
    D8        3.14159   0.00000   0.00000   0.00000   0.00000   3.14159
    D9        3.14159   0.00000   0.00000   0.00000   0.00000   3.14159
   D10        0.00000   0.00000   0.00000   0.00000   0.00000   0.00000
   D11        0.00000   0.00000   0.00000   0.00000   0.00000   0.00000
   D12       -3.14159   0.00000   0.00000   0.00000   0.00000  -3.14159
   D13        0.00000   0.00000   0.00000   0.00000   0.00000   0.00000
   D14        3.14159   0.00000   0.00000   0.00000   0.00000   3.14159
   D15        0.00000   0.00000   0.00000   0.00000   0.00000   0.00000
   D16        3.14159   0.00000   0.00000   0.00000   0.00000   3.14159
         Item               Value     Threshold  Converged?
 Maximum Force            0.000114     0.000450     YES
 RMS     Force            0.000042     0.000300     YES
 Maximum Displacement     0.000528     0.001800     YES
 RMS     Displacement     0.000161     0.001200     YES
 Predicted change in Energy=-1.432396D-07
 Optimization completed.
    -- Stationary point found.
                         ----------------------------
                         !   Optimized Parameters   !
                         ! (Angstroms and Degrees)  !
 ------------------------                            -------------------------
 ! Name  Definition              Value          Derivative Info.             !
 -----------------------------------------------------------------------------
 ! R1    R(1,2)                  1.079          -DE/DX =    0.               !
 ! R2    R(2,4)                  1.3951         -DE/DX =    0.0001           !
 ! R3    R(2,9)                  1.3829         -DE/DX =   -0.0001           !
 ! R4    R(3,4)                  1.0781         -DE/DX =   -0.0001           !
 ! R5    R(4,6)                  1.4224         -DE/DX =    0.0001           !
 ! R6    R(5,6)                  1.0784         -DE/DX =    0.               !
 ! R7    R(6,7)                  1.3744         -DE/DX =   -0.0001           !
 ! R8    R(7,9)                  1.4157         -DE/DX =    0.               !
 ! R9    R(8,9)                  1.0114         -DE/DX =    0.               !
 ! A1    A(1,2,4)              131.0635         -DE/DX =    0.               !
 ! A2    A(1,2,9)              122.3322         -DE/DX =    0.0001           !
 ! A3    A(4,2,9)              106.6042         -DE/DX =    0.               !
 ! A4    A(2,4,3)              126.7513         -DE/DX =    0.               !
 ! A5    A(2,4,6)              105.762          -DE/DX =    0.               !
 ! A6    A(3,4,6)              127.4867         -DE/DX =    0.0001           !
 ! A7    A(4,6,5)              128.4733         -DE/DX =    0.               !
 ! A8    A(4,6,7)              112.4853         -DE/DX =    0.               !
 ! A9    A(5,6,7)              119.0415         -DE/DX =    0.               !
 ! A10   A(6,7,9)              102.5662         -DE/DX =    0.               !
 ! A11   A(2,9,7)              112.5823         -DE/DX =    0.0001           !
 ! A12   A(2,9,8)              128.755          -DE/DX =   -0.0001           !
 ! A13   A(7,9,8)              118.6628         -DE/DX =    0.               !
 ! D1    D(1,2,4,3)              0.             -DE/DX =    0.               !
 ! D2    D(1,2,4,6)            180.             -DE/DX =    0.               !
 ! D3    D(9,2,4,3)            180.             -DE/DX =    0.               !
 ! D4    D(9,2,4,6)              0.             -DE/DX =    0.               !
 ! D5    D(1,2,9,7)            180.             -DE/DX =    0.               !
 ! D6    D(1,2,9,8)              0.             -DE/DX =    0.               !
 ! D7    D(4,2,9,7)              0.             -DE/DX =    0.               !
 ! D8    D(4,2,9,8)            180.             -DE/DX =    0.               !
 ! D9    D(2,4,6,5)            180.             -DE/DX =    0.               !
 ! D10   D(2,4,6,7)              0.             -DE/DX =    0.               !
 ! D11   D(3,4,6,5)              0.             -DE/DX =    0.               !
 ! D12   D(3,4,6,7)           -180.             -DE/DX =    0.               !
 ! D13   D(4,6,7,9)              0.             -DE/DX =    0.               !
 ! D14   D(5,6,7,9)            180.             -DE/DX =    0.               !
 ! D15   D(6,7,9,2)              0.             -DE/DX =    0.               !
 ! D16   D(6,7,9,8)            180.             -DE/DX =    0.               !
 -----------------------------------------------------------------------------
 GradGradGradGradGradGradGradGradGradGradGradGradGradGradGradGradGradGrad

 1\1\GINC-QCHEM2\Freq\RMP2-FC\3-21G\C3H4N2\RDJ3\21-Oct-1999\0\\#N GEOM=
 ALLCHECK GUESS=TCHECK RMP2(FC)/3-21G FREQ\\1H pyrazole C3H4N2 casno=28
 8131\\0,1\H,-1.8953351164,0.,-1.2131749228\C,-0.9536583439,0.,-0.68639
 25944\H,0.6756063627,0.,-2.1877964747\C,0.3597140453,0.,-1.156995694\H
 ,2.2620820451,0.,0.0577393251\C,1.1851997697,0.,0.0013428521\N,0.45607
 47973,0.,1.1664074382\H,-1.6318485121,0.,1.3694174843\N,-0.878651598,0
 .,0.6944621627\\Version=x86-Linux-G98RevA.4\State=1-A'\HF=-223.5183657
 \MP2=-224.0111995\RMSD=8.985e-10\RMSF=8.944e-05\Dipole=-0.8350589,0.,-
 0.4009763\DipoleDeriv=0.0048707,0.,-0.0384769,0.,0.2039019,0.,-0.04525
 3,0.,0.0654614,0.074288,0.,-0.1265341,0.,-0.0954121,0.,-0.2577912,0.,0
 .2285569,0.0947233,0.,0.0270844,0.,0.1682413,0.,0.0325374,0.,-0.020225
 3,-0.2352401,0.,0.0540901,0.,-0.2113991,0.,-0.0710489,0.,-0.027055,-0.
 0350124,0.,-0.0207023,0.,0.1628002,0.,-0.0058461,0.,0.083205,0.1687659
 ,0.,0.1173213,0.,-0.1136329,0.,0.2053085,0.,-0.0218598,0.1041814,0.,-0
 .0640291,0.,-0.1804268,0.,-0.0734777,0.,-0.2878,0.2408024,0.,-0.043327
 7,0.,0.3683211,0.,-0.0592526,0.,0.2429861,-0.4173792,0.,0.0945743,0.,-
 0.3023936,0.,0.2748236,0.,-0.2632694\Polar=46.3749811,0.,11.7286763,-0
 .501729,0.,40.8630895\PG=CS [SG(C3H4N2)]\NImag=0\\0.30283278,0.,0.0191
 6488,0.13968260,0.,0.13237361,-0.29934835,0.,-0.12453823,0.82625433,0.
 ,-0.02248098,0.,0.,0.11428794,-0.13354239,0.,-0.12727406,0.10786908,0.
 ,0.59642288,0.00006136,0.,-0.00085986,0.00164335,0.,0.02862388,0.08263
 856,0.,-0.00235324,0.,0.,-0.00349720,0.,0.,0.02157229,0.00080896,0.,-0
 .00002958,-0.00568245,0.,0.00000464,-0.09357259,0.,0.35446273,-0.00671
 813,0.,0.01176079,-0.30312153,0.,0.07815239,-0.08833528,0.,0.08841629,
 0.58651600,0.,-0.00055147,0.,0.,-0.06124059,0.,0.,-0.02397108,0.,0.,0.
 11406144,-0.01649785,0.,0.01304615,0.08110767,0.,-0.13348101,0.0846213
 4,0.,-0.34285109,-0.12117817,0.,0.81235277,-0.00039427,0.,0.00027457,-
 0.00021833,0.,-0.00019103,-0.00029098,0.,-0.00094394,-0.00382520,0.,0.
 00562443,0.38171064,0.,0.00073442,0.,0.,0.00493201,0.,0.,-0.00142998,0
 .,0.,-0.00102572,0.,0.,0.02362461,-0.00120368,0.,0.00104456,-0.0035526
 0,0.,-0.00658747,0.00083184,0.,0.00010214,-0.02432786,0.,0.00675669,0.
 01651418,0.,0.05828492,-0.00431508,0.,0.00533657,-0.07094063,0.,-0.010
 17318,0.01308960,0.,0.01379028,-0.16904745,0.,-0.08073107,-0.36562326,
 0.,-0.02661654,0.85076103,0.,0.00533729,0.,0.,0.01152282,0.,0.,-0.0043
 9845,0.,0.,-0.06318285,0.,0.,-0.02806483,0.,0.,0.13294608,0.00044800,0
 .,-0.00271166,-0.06369003,0.,0.01315376,-0.01846899,0.,-0.00997783,-0.
 06692051,0.,-0.20493217,-0.01807023,0.,-0.05909660,0.03128359,0.,0.497
 69017,0.00087650,0.,-0.00008032,-0.05505908,0.,-0.04282663,-0.00227841
 ,0.,-0.00034786,0.01801400,0.,0.02640350,-0.01109063,0.,0.02940085,-0.
 13843388,0.,0.10218774,0.37861963,0.,0.00585817,0.,0.,0.01644504,0.,0.
 ,0.00650700,0.,0.,0.02039902,0.,0.,-0.00757487,0.,0.,-0.06861229,0.,0.
 ,0.09654333,0.00363837,0.,-0.00471318,-0.02314096,0.,-0.05112640,-0.00
 603950,0.,-0.00212897,-0.02081559,0.,-0.08315175,-0.00475270,0.,0.0034
 3279,0.03872077,0.,-0.20641411,-0.02277629,0.,0.43944208,-0.00030169,0
 .,0.00074426,0.01001607,0.,-0.00860035,0.00071060,0.,-0.00004489,0.002
 16059,0.,-0.00388845,-0.00042948,0.,0.00157471,-0.00678289,0.,-0.00616
 011,-0.01474633,0.,0.02584926,0.28623579,0.,-0.00129109,0.,0.,-0.00779
 315,0.,0.,0.00211167,0.,0.,0.00370762,0.,0.,0.00204127,0.,0.,0.0043986
 9,0.,0.,-0.01111249,0.,0.,0.01383397,-0.00070458,0.,-0.00040748,0.0263
 8835,0.,-0.00301363,0.00133013,0.,0.00011984,-0.00306004,0.,-0.0065791
 3,-0.00045546,0.,0.00118543,-0.00708367,0.,0.00057803,-0.01459368,0.,0
 .01299713,-0.19935480,0.,0.24487707,0.00730689,0.,-0.03232037,-0.10922
 583,0.,-0.01931177,-0.00723879,0.,-0.00242381,-0.03564300,0.,0.0245385
 9,0.00016152,0.,0.00737911,-0.10870743,0.,0.03939055,-0.17590179,0.,0.
 00931664,-0.27686265,0.,0.19753374,0.70611109,0.,-0.00441796,0.,0.,-0.
 05217589,0.,0.,0.00545900,0.,0.,0.01180364,0.,0.,0.00676309,0.,0.,0.01
 005354,0.,0.,-0.05845292,0.,0.,-0.00589648,0.,0.,0.08686399,0.00737057
 ,0.,-0.01132836,0.00523917,0.,-0.28809871,0.00353374,0.,0.00029811,0.0
 5797270,0.,-0.06116045,0.00200018,0.,-0.00512247,0.03547325,0.,-0.0282
 8959,-0.07736732,0.,-0.10833761,0.18988038,0.,-0.24975727,-0.22410268,
 0.,0.75179634\\-0.00004796,0.,0.00002520,0.00019052,0.,-0.00017229,0.0
 0004606,0.,-0.00004127,-0.00007624,0.,0.00019527,0.00003733,0.,0.00004
 169,-0.00004789,0.,-0.00023696,0.00003446,0.,0.00006813,0.00001533,0.,
 0.00003317,-0.00015162,0.,0.00008706\\\@

 SUCCESS IS NEVER CERTAIN,
 FAILURE IS NEVER FINAL.
 Job cpu time:  0 days  0 hours  9 minutes  8.7 seconds.
 File lengths (MBytes):  RWF=  214 Int=    0 D2E=    0 Chk=    3 Scr=    1
 Normal termination of Gaussian 98.
