 Gaussian 03, Revision C.02,
 Gaussian 03:  IA32L-G03RevC.02 12-Jun-2004

 -------------------------
 #MP2/6-311G(d,p) opt freq
 -------------------------

 -------------------------------------------------
 1H pyrazole C3H4N2 casno=288131 method=3 basis=21
 -------------------------------------------------
 Symbolic Z-matrix:
 Charge =  0 Multiplicity = 1

 SCF Done:  E(RHF) =  -224.796576514     A.U. after   14 cycles
 E2 =    -0.7469022163D+00 EUMP2 =    -0.22554347873047D+03
 SCF Done:  E(RHF) =  -224.842549934     A.U. after   13 cycles
 E2 =    -0.7589535019D+00 EUMP2 =    -0.22560150343543D+03
 SCF Done:  E(RHF) =  -224.844558009     A.U. after   14 cycles
 E2 =    -0.7692080872D+00 EUMP2 =    -0.22561376609581D+03
 SCF Done:  E(RHF) =  -224.844705523     A.U. after   10 cycles
 E2 =    -0.7691858951D+00 EUMP2 =    -0.22561389141859D+03
 SCF Done:  E(RHF) =  -224.844735083     A.U. after   11 cycles
 E2 =    -0.7691863400D+00 EUMP2 =    -0.22561392142289D+03
 SCF Done:  E(RHF) =  -224.844753343     A.U. after    8 cycles
 E2 =    -0.7691703152D+00 EUMP2 =    -0.22561392365796D+03
 Optimization completed.
    -- Stationary point found.
 Normal termination of Gaussian 03 at Wed Jan  5 14:16:05 2005.

 ----------------------------------------------------------------------
 #N Geom=AllCheck Guess=Read SCRF=Check GenChk RMP2(FC)/6-311G(d,p) Fre
 q
 ----------------------------------------------------------------------

 1H pyrazole C3H4N2 casno=288131 method=3 basis=21
 -------------------------------------------------
 Redundant internal coordinates taken from checkpoint file:
 /scratch/Gau-11757.chk
 Charge =  0 Multiplicity = 1

                         Standard orientation:
 ---------------------------------------------------------------------
 Center     Atomic     Atomic              Coordinates (Angstroms)
 Number     Number      Type              X           Y           Z
 ---------------------------------------------------------------------
    1          1             0        2.108583    0.732720    0.000000
    2          6             0        1.116685    0.305794    0.000000
    3          1             0        1.260778   -1.902284    0.000000
    4          6             0        0.660776   -1.005214    0.000000
    5          1             0       -1.487423   -1.678940    0.000000
    6          6             0       -0.744202   -0.894379    0.000000
    7          7             0       -1.147928    0.390205    0.000000
    8          1             0       -0.045996    2.091471    0.000000
    9          7             0        0.000000    1.084055    0.000000
 ---------------------------------------------------------------------

 SCF Done:  E(RHF) =  -224.844753343     A.U. after    1 cycles
 E2 =    -0.7691703196D+00 EUMP2 =    -0.22561392366238D+03

 The electronic state is 1-A'.
 Alpha  occ. eigenvalues --  -15.63822 -15.58254 -11.27872 -11.25106 -11.22274
 Alpha  occ. eigenvalues --   -1.37247  -1.09042  -1.05024  -0.82298  -0.79792
 Alpha  occ. eigenvalues --   -0.74046  -0.60695  -0.60288  -0.59077  -0.56107
 Alpha  occ. eigenvalues --   -0.45850  -0.36110  -0.34222
 Alpha virt. eigenvalues --    0.14996   0.16288   0.18511   0.19311   0.21356
 Alpha virt. eigenvalues --    0.22627   0.36901   0.37786   0.39902   0.42675
 Alpha virt. eigenvalues --    0.51513   0.57005   0.58453   0.59056   0.62332

 Mulliken atomic charges:
              1
     1  H    0.122299
     2  C    0.172302
     3  H    0.108653
     4  C   -0.366572
     5  H    0.110081
     6  C    0.138452
     7  N   -0.259134
     8  H    0.246866
     9  N   -0.272946
 Sum of Mulliken charges=   0.00000

 Dipole moment (field-independent basis, Debye):
    X=     2.3342    Y=     0.8010    Z=     0.0000  Tot=     2.4678
 Quadrupole moment (field-independent basis, Debye-Ang):
   XX=   -29.5591   YY=   -22.0254   ZZ=   -32.5036
   XY=     2.9194   XZ=     0.0000   YZ=     0.0000

  Exact polarizability:  48.076   2.098  48.816   0.000   0.000  21.715
 Approx polarizability:  46.236   0.600  48.258   0.000   0.000  23.950

                     1                      2                      3
                    A"                     A"                     A"
 Frequencies --   510.2792               624.7964               691.1085
 Red. masses --     1.9168                 3.1391                 2.6538
 Frc consts  --     0.2941                 0.7220                 0.7468
 IR Inten    --    44.8369                 0.0093                31.4805

                     4                      5                      6
                    A"                     A"                     A"
 Frequencies --   726.9152               811.1169               853.2961
 Red. masses --     1.2028                 1.1576                 1.2223
 Frc consts  --     0.3744                 0.4487                 0.5244
 IR Inten    --    74.8847                32.6023                 4.9939

                     7                      8                      9
                    A'                     A'                     A'
 Frequencies --   913.3275               933.6556              1063.1079
 Red. masses --     5.4138                 3.6475                 1.4458
 Frc consts  --     2.6608                 1.8734                 0.9628
 IR Inten    --     7.3087                 3.0431                10.4678

                    10                     11                     12
                    A'                     A'                     A'
 Frequencies --  1067.4293              1162.3277              1196.6042
 Red. masses --     1.4962                 1.7750                 3.3944
 Frc consts  --     1.0044                 1.4129                 2.8636
 IR Inten    --    31.4724                11.6181                 1.1529

                    13                     14                     15
                    A'                     A'                     A'
 Frequencies --  1291.8389              1380.6963              1453.9772
 Red. masses --     1.6859                 2.8014                 4.1320
 Frc consts  --     1.6577                 3.1464                 5.1466
 IR Inten    --     2.8514                 2.5661                11.3889

                    16                     17                     18
                    A'                     A'                     A'
 Frequencies --  1508.5518              1551.9442              3284.5048
 Red. masses --     3.0433                 2.7995                 1.0916
 Frc consts  --     4.0806                 3.9727                 6.9384
 IR Inten    --     5.0445                 4.3851                 1.9234

                    19                     20                     21
                    A'                     A'                     A'
 Frequencies --  3294.6062              3313.8247              3692.0483
 Red. masses --     1.0952                 1.1085                 1.0824
 Frc consts  --     7.0042                 7.1722                 8.6928
 IR Inten    --     1.1020                 0.2465                94.4142

 - Thermochemistry -
 -------------------
 Temperature   298.150 Kelvin.  Pressure   1.00000 Atm.
 Atom  1 has atomic number  1 and mass   1.00783

 Molecular mass:    68.03745 amu.
 Principal axes and moments of inertia in atomic units:
                           1         2         3
     EIGENVALUES --   187.62011 192.45332 380.07343
           X            0.87178   0.48989   0.00000
           Y           -0.48989   0.87178   0.00000
           Z            0.00000   0.00000   1.00000
 This molecule is an asymmetric top.
 Rotational symmetry number  1.
 Rotational temperatures (Kelvin)      0.46164     0.45005     0.22789
 Rotational constants (GHZ):           9.61912     9.37755     4.74840
 Zero-point vibrational energy     187370.8 (Joules/Mol)
                                   44.78270 (Kcal/Mol)
 Warning -- explicit consideration of   1 degrees of freedom as
           vibrations may cause significant error
 Vibrational temperatures:    734.18   898.94   994.35  1045.87  1167.01
          (Kelvin)           1227.70  1314.07  1343.32  1529.57  1535.79
                             1672.33  1721.64  1858.67  1986.51  2091.95
                             2170.47  2232.90  4725.66  4740.20  4767.85
                             5312.03

 Zero-point correction=                           0.071366 (Hartree/Particle)
 Thermal correction to Energy=                    0.075147
 Thermal correction to Enthalpy=                  0.076091
 Thermal correction to Gibbs Free Energy=         0.045077
 Sum of electronic and zero-point Energies=           -225.542558
 Sum of electronic and thermal Energies=              -225.538777
 Sum of electronic and thermal Enthalpies=            -225.537833
 Sum of electronic and thermal Free Energies=         -225.568847

                     E (Thermal)             CV                S
                      KCal/Mol        Cal/Mol-Kelvin    Cal/Mol-Kelvin
 Total                   47.155             13.479             65.275
 Electronic               0.000              0.000              0.000
 Translational            0.889              2.981             38.570
 Rotational               0.889              2.981             24.132
 Vibrational             45.378              7.517              2.572
 Vibration  1             0.865              1.227              0.633

 Optimization completed.
    -- Stationary point found.
 Normal termination of Gaussian 03 at Wed Jan  5 14:37:24 2005.
