 Gaussian 09, Revision A.02,
 Gaussian 09:  AM64L-G09RevA.02 11-Jun-2009

 ------------------
 #MP2/TZVP opt freq
 ------------------

 -------------------------------------------------
 1H pyrazole C3H4N2 casno=288131 method=3 basis=32
 -------------------------------------------------
 Symbolic Z-matrix:
 Charge =  0 Multiplicity = 1

 SCF Done:  E(RHF) =  -224.815446584     A.U. after   14 cycles
 E2 =    -0.7487304115D+00 EUMP2 =    -0.22556417699544D+03
 SCF Done:  E(RHF) =  -224.860103317     A.U. after   13 cycles
 E2 =    -0.7588375218D+00 EUMP2 =    -0.22561894083877D+03
 SCF Done:  E(RHF) =  -224.862342378     A.U. after   13 cycles
 E2 =    -0.7673099263D+00 EUMP2 =    -0.22562965230443D+03
 SCF Done:  E(RHF) =  -224.862427436     A.U. after   11 cycles
 E2 =    -0.7673661488D+00 EUMP2 =    -0.22562979358521D+03
 SCF Done:  E(RHF) =  -224.862422713     A.U. after   11 cycles
 E2 =    -0.7674079955D+00 EUMP2 =    -0.22562983070878D+03
 SCF Done:  E(RHF) =  -224.862453318     A.U. after    9 cycles
 E2 =    -0.7673795562D+00 EUMP2 =    -0.22562983287400D+03
 Optimization completed.
    -- Stationary point found.
 Normal termination of Gaussian 09 at Fri Feb  4 17:13:37 2011.

 ------------------------------------------------------------------
 #N Geom=AllCheck Guess=TCheck SCRF=Check GenChk RMP2(FC)/TZVP Freq
 ------------------------------------------------------------------

 1H pyrazole C3H4N2 casno=288131 method=3 basis=32
 -------------------------------------------------
 Redundant internal coordinates taken from checkpoint file:
 /gaussian/Gau-25097.chk
 Charge =  0 Multiplicity = 1

                         Standard orientation:
 ---------------------------------------------------------------------
 Center     Atomic      Atomic             Coordinates (Angstroms)
 Number     Number       Type             X           Y           Z
 ---------------------------------------------------------------------
      1          1           0        2.101919    0.731043    0.000000
      2          6           0        1.112969    0.305597    0.000000
      3          1           0        1.259686   -1.893239    0.000000
      4          6           0        0.659922   -0.999933    0.000000
      5          1           0       -1.478325   -1.679640    0.000000
      6          6           0       -0.740216   -0.895012    0.000000
      7          7           0       -1.147598    0.385465    0.000000
      8          1           0       -0.046151    2.090613    0.000000
      9          7           0        0.000000    1.084150    0.000000
 ---------------------------------------------------------------------

 SCF Done:  E(RHF) =  -224.862453318     A.U. after    1 cycles
 E2 =    -0.7673795585D+00 EUMP2 =    -0.22562983287630D+03
 E2 =    -0.7673795585D+00 EUMP2 =    -0.22562983287630D+03

 The electronic state is 1-A'.
 Alpha  occ. eigenvalues --  -15.64242 -15.58841 -11.27977 -11.25241 -11.22339
 Alpha  occ. eigenvalues --   -1.37746  -1.09577  -1.05548  -0.82738  -0.80220
 Alpha  occ. eigenvalues --   -0.74527  -0.61194  -0.60647  -0.59434  -0.56626
 Alpha  occ. eigenvalues --   -0.46178  -0.36510  -0.34610
 Alpha virt. eigenvalues --    0.13634   0.14910   0.18329   0.19292   0.20604
 Alpha virt. eigenvalues --    0.20654   0.24743   0.27205   0.29969   0.32318
 Alpha virt. eigenvalues --    0.33914   0.38859   0.39620   0.39765   0.45647

 Mulliken atomic charges:
              1
     1  H    0.132205
     2  C   -0.225662
     3  H    0.135965
     4  C    0.011179
     5  H    0.113373
     6  C   -0.226889
     7  N   -0.127298
     8  H    0.252756
     9  N   -0.065630
 Sum of Mulliken atomic charges =   0.00000

 Dipole moment (field-independent basis, Debye):
    X=              2.4012    Y=              0.8017    Z=              0.0000  Tot=              2.5315
 Quadrupole moment (field-independent basis, Debye-Ang):
   XX=            -29.9618   YY=            -22.1613   ZZ=            -32.7759
   XY=              2.9864   XZ=              0.0000   YZ=              0.0000

  Exact polarizability:  50.864   1.594  50.754   0.000   0.000  28.015
 Approx polarizability:  47.105   0.419  48.919   0.000   0.000  28.845

                     1                      2                      3
                    A"                     A"                     A"
 Frequencies --   313.2043               545.7166               627.0223
 Red. masses --     2.1732                 4.4911                 1.7539
 Frc consts  --     0.1256                 0.7880                 0.4063
 IR Inten    --    27.3117                 1.8712                69.9246

                     4                      5                      6
                    A"                     A"                     A"
 Frequencies --   670.0998               733.2275               764.0133
 Red. masses --     1.5565                 1.0634                 1.1174
 Frc consts  --     0.4118                 0.3368                 0.3843
 IR Inten    --    11.4530                13.5169                72.7177

                     7                      8                      9
                    A'                     A'                     A'
 Frequencies --   918.7206               937.8245              1066.4695
 Red. masses --     5.6921                 3.8565                 1.6530
 Frc consts  --     2.8307                 1.9984                 1.1077
 IR Inten    --     6.5257                 3.1512                30.4120

                    10                     11                     12
                    A'                     A'                     A'
 Frequencies --  1071.3482              1165.4721              1191.4580
 Red. masses --     1.4302                 1.9161                 2.8649
 Frc consts  --     0.9672                 1.5335                 2.3961
 IR Inten    --    12.0533                14.3215                 0.7091

                    13                     14                     15
                    A'                     A'                     A'
 Frequencies --  1292.8761              1379.4935              1455.6012
 Red. masses --     1.9614                 2.2513                 3.8459
 Frc consts  --     1.9316                 2.5242                 4.8010
 IR Inten    --     1.4207                 4.1358                10.8917

                    16                     17                     18
                    A'                     A'                     A'
 Frequencies --  1501.2429              1556.8359              3301.2696
 Red. masses --     2.7562                 2.7223                 1.0917
 Frc consts  --     3.6599                 3.8875                 7.0098
 IR Inten    --     6.9241                 4.9340                 1.5133

                    19                     20                     21
                    A'                     A'                     A'
 Frequencies --  3310.3920              3329.0954              3685.1600
 Red. masses --     1.0951                 1.1078                 1.0824
 Frc consts  --     7.0705                 7.2338                 8.6606
 IR Inten    --     0.7406                 0.0866                97.6059

 - Thermochemistry -
 -------------------
 Temperature   298.150 Kelvin.  Pressure   1.00000 Atm.
 Atom     1 has atomic number  1 and mass   1.00783

 Molecular mass:    68.03745 amu.
 Principal axes and moments of inertia in atomic units:
                           1         2         3
     Eigenvalues --   187.05978 191.39018 378.44996
           X            0.87698   0.48052   0.00000
           Y           -0.48052   0.87698   0.00000
           Z            0.00000   0.00000   1.00000
 This molecule is an asymmetric top.
 Rotational symmetry number  1.
 Rotational temperatures (Kelvin)      0.46303     0.45255     0.22886
 Rotational constants (GHZ):           9.64794     9.42964     4.76877
 Zero-point vibrational energy     184323.9 (Joules/Mol)
                                   44.05446 (Kcal/Mol)
 Warning -- explicit consideration of   2 degrees of freedom as
           vibrations may cause significant error
 Vibrational temperatures:    450.63   785.16   902.14   964.12  1054.95
          (Kelvin)           1099.24  1321.83  1349.32  1534.41  1541.43
                             1676.85  1714.24  1860.16  1984.78  2094.28
                             2159.95  2239.94  4749.78  4762.91  4789.82
                             5302.12

 Zero-point correction=                           0.070205 (Hartree/Particle)
 Thermal correction to Energy=                    0.074319
 Thermal correction to Enthalpy=                  0.075263
 Thermal correction to Gibbs Free Energy=         0.043710
 Sum of electronic and zero-point Energies=           -225.559628
 Sum of electronic and thermal Energies=              -225.555514
 Sum of electronic and thermal Enthalpies=            -225.554570
 Sum of electronic and thermal Free Energies=         -225.586123

                     E (Thermal)             CV                S
                      KCal/Mol        Cal/Mol-Kelvin    Cal/Mol-Kelvin
 Total                   46.636             14.569             66.410
 Electronic               0.000              0.000              0.000
 Translational            0.889              2.981             38.570
 Rotational               0.889              2.981             24.120
 Vibrational             44.858              8.607              3.720
 Vibration     1          0.701              1.648              1.345
 Vibration     2          0.901              1.149              0.553

 Optimization completed.
    -- Stationary point found.
 Normal termination of Gaussian 09 at Fri Feb  4 17:29:49 2011.
