 Gaussian 98, Revision A.4,
 Gaussian 98:  IBM-RS6000-G98RevA.4 11-Sep-1998

 ----------------------
 #MP2/6-31+G** opt freq
 ----------------------

 -------------------------------
 1H pyrazole C3H4N2 casno=288131
 -------------------------------
 Symbolic Z-matrix:
 Charge =  0 Multiplicity = 1

 SCF Done:  E(RHF) =  -224.757188899     A.U. after   14 cycles
 E2 =    -0.7235993145D+00 EUMP2 =    -0.22548078821337D+03
 SCF Done:  E(RHF) =  -224.804889713     A.U. after   13 cycles
 E2 =    -0.7349062435D+00 EUMP2 =    -0.22553979595682D+03
 SCF Done:  E(RHF) =  -224.807424475     A.U. after   13 cycles
 E2 =    -0.7447009919D+00 EUMP2 =    -0.22555212546697D+03
 SCF Done:  E(RHF) =  -224.807444166     A.U. after   11 cycles
 E2 =    -0.7448495528D+00 EUMP2 =    -0.22555229371861D+03
 SCF Done:  E(RHF) =  -224.807389967     A.U. after   12 cycles
 E2 =    -0.7449471667D+00 EUMP2 =    -0.22555233713365D+03
 SCF Done:  E(RHF) =  -224.807415491     A.U. after   10 cycles
 E2 =    -0.7449245673D+00 EUMP2 =    -0.22555234005869D+03
 Optimization completed.
    -- Stationary point found.
 Normal termination of Gaussian 98.

 -------------------------------------------------------
 #N Geom=AllCheck Guess=TCheck RMP2(FC)/6-31+G(d,p) Freq
 -------------------------------------------------------

 1H pyrazole C3H4N2 casno=288131
 -------------------------------
 Redundant internal coordinates taken from checkpointfile:
 /wrk/rdj3/Gau-14304.chk
 Charge =  0 Multiplicity = 1

                         Standard orientation:
 ---------------------------------------------------------------------
 Center     Atomic     Atomic              Coordinates (Angstroms)
 Number     Number      Type              X           Y           Z
 ---------------------------------------------------------------------
    1          1             0        2.106312    0.732973    0.000000
    2          6             0        1.116830    0.307955    0.000000
    3          1             0        1.263071   -1.895679    0.000000
    4          6             0        0.662088   -1.002571    0.000000
    5          1             0       -1.478998   -1.685154    0.000000
    6          6             0       -0.741610   -0.899752    0.000000
    7          7             0       -1.152363    0.386462    0.000000
    8          1             0       -0.047693    2.094612    0.000000
    9          7             0        0.000000    1.087747    0.000000
 ---------------------------------------------------------------------

 SCF Done:  E(RHF) =  -224.807415491     A.U. after    1 cycles
 E2 =    -0.7449245681D+00 EUMP2 =    -0.22555234005948D+03

  The electronic state is 1-A'.
 Alpha  occ. eigenvalues --  -15.65334 -15.60020 -11.28786 -11.26047 -11.23161
 Alpha  occ. eigenvalues --   -1.37536  -1.09628  -1.05566  -0.82902  -0.80237
 Alpha  occ. eigenvalues --   -0.74530  -0.61188  -0.60481  -0.59511  -0.56679
 Alpha  occ. eigenvalues --   -0.46245  -0.36475  -0.34587
 Alpha virt. eigenvalues --    0.06351   0.08363   0.09219   0.11272   0.11276
 Alpha virt. eigenvalues --    0.12259   0.12839   0.15074   0.16405   0.17691
 Alpha virt. eigenvalues --    0.18896   0.19354   0.22022   0.23331   0.24180

  Exact polarizability:  53.321   1.021  52.305   0.000   0.000  31.304
 Approx polarizability:  48.353   0.278  49.894   0.000   0.000  30.196

                     1                      2                      3
                    A"                     A"                     A"
 Frequencies --   491.1552               595.4739               677.1354
 Red. masses --     2.1990                 3.8485                 2.4981
 Frc consts  --     0.3125                 0.8040                 0.6749
 IR Inten    --    41.5004                 0.8435                29.9803
 Raman Activ --     0.0000                 0.0000                 0.0000

                     4                      5                      6
                    A"                     A"                     A"
 Frequencies --   712.2344               779.7462               821.0358
 Red. masses --     1.1783                 1.0988                 1.1654
 Frc consts  --     0.3522                 0.3936                 0.4629
 IR Inten    --    90.8809                24.3320                30.4430
 Raman Activ --     0.0000                 0.0000                 0.0000

                     7                      8                      9
                    A'                     A'                     A'
 Frequencies --   915.0176               935.8209              1073.5676
 Red. masses --     5.6553                 4.1731                 1.6412
 Frc consts  --     2.7898                 2.1533                 1.1145
 IR Inten    --     6.7516                 2.1644                30.1592
 Raman Activ --     0.0000                 0.0000                 0.0000

                    10                     11                     12
                    A'                     A'                     A'
 Frequencies --  1080.5916              1172.1815              1195.7477
 Red. masses --     1.4035                 1.9083                 2.7501
 Frc consts  --     0.9656                 1.5449                 2.3167
 IR Inten    --    12.9340                14.3629                 1.0930
 Raman Activ --     0.0000                 0.0000                 0.0000

                    13                     14                     15
                    A'                     A'                     A'
 Frequencies --  1302.5399              1392.0073              1478.2140
 Red. masses --     1.8085                 2.3962                 3.9856
 Frc consts  --     1.8078                 2.7356                 5.1311
 IR Inten    --     2.0400                 4.1137                11.0066
 Raman Activ --     0.0000                 0.0000                 0.0000

                    16                     17                     18
                    A'                     A'                     A'
 Frequencies --  1517.4420              1568.4850              3332.5870
 Red. masses --     2.7613                 2.8909                 1.0906
 Frc consts  --     3.7462                 4.1902                 7.1362
 IR Inten    --     7.5754                 5.5105                 1.0077
 Raman Activ --     0.0000                 0.0000                 0.0000

                    19                     20                     21
                    A'                     A'                     A'
 Frequencies --  3341.1961              3358.1735              3727.8106
 Red. masses --     1.0962                 1.1079                 1.0828
 Frc consts  --     7.2099                 7.3613                 8.8659
 IR Inten    --     1.1438                 0.1239               101.0794
 Raman Activ --     0.0000                 0.0000                 0.0000

 - Thermochemistry -
 -------------------
 Temperature   298.150 Kelvin.  Pressure   1.00000 Atm.
 Atom  1 has atomic number  1 and mass   1.00783

 Molecular mass:    68.03745 amu.
 Principal axes and moments of inertia in atomic units:
                           1         2         3
     EIGENVALUES --   188.36133 192.57297 380.93430
           X            0.87993   0.47511   0.00000
           Y           -0.47511   0.87993   0.00000
           Z            0.00000   0.00000   1.00000
 THIS MOLECULE IS AN ASYMMETRIC TOP.
 ROTATIONAL SYMMETRY NUMBER  1.
 ROTATIONAL TEMPERATURES (KELVIN)      0.45983     0.44977     0.22737
 ROTATIONAL CONSTANTS (GHZ)            9.58127     9.37173     4.73767
 Zero-point vibrational energy     188221.4 (Joules/Mol)
                                   44.98600 (Kcal/Mol)
 WARNING-- EXPLICIT CONSIDERATION OF   2 DEGREES OF FREEDOM AS
           VIBRATIONS MAY CAUSE SIGNIFICANT ERROR
 VIBRATIONAL TEMPERATURES:    706.66   856.75   974.24  1024.74  1121.87
          (KELVIN)           1181.28  1316.50  1346.43  1544.62  1554.72
                             1686.50  1720.40  1874.05  2002.78  2126.81
                             2183.25  2256.69  4794.82  4807.21  4831.63
                             5363.46

 Zero-point correction=                           0.071690 (Hartree/Particle)
 Thermal correction to Energy=                    0.075523
 Thermal correction to Enthalpy=                  0.076468
 Thermal correction to Gibbs Free Energy=         0.045372
 Sum of electronic and zero-point Energies=           -225.480650
 Sum of electronic and thermal Energies=              -225.476817
 Sum of electronic and thermal Enthalpies=            -225.475872
 Sum of electronic and thermal Free Energies=         -225.506968

                     E (Thermal)             CV                S
                      KCAL/MOL        CAL/MOL-KELVIN    CAL/MOL-KELVIN
 TOTAL                   47.392             13.684             65.446
 ELECTRONIC               0.000              0.000              0.000
 TRANSLATIONAL            0.889              2.981             38.570
 ROTATIONAL               0.889              2.981             24.139
 VIBRATIONAL             45.614              7.723              2.736
 VIBRATION  1             0.847              1.270              0.681
 VIBRATION  2             0.953              1.041              0.458
                       Q            LOG10(Q)             LN(Q)
 TOTAL BOT       0.134990D-20        -20.869699        -48.054258
 TOTAL V=0       0.127373D+13         12.105078         27.872972
 VIB (BOT)       0.145429D-32        -32.837349        -75.610791
 VIB (BOT)  1    0.337245D+00         -0.472054         -1.086944
 VIB (BOT)  2    0.251926D+00         -0.598726         -1.378619
 VIB (V=0)       0.137223D+01          0.137428          0.316439
 VIB (V=0)  1    0.110310D+01          0.042616          0.098128
 VIB (V=0)  2    0.105988D+01          0.025257          0.058157
 ELECTRONIC      0.100000D+01          0.000000          0.000000
 TRANSLATIONAL   0.220588D+08          7.343582         16.909224
 ROTATIONAL      0.420792D+05          4.624068         10.647310
 ***** Axes restored to original set *****
 -------------------------------------------------------------------
 Center     Atomic                   Forces (Hartrees/Bohr)
 Number     Number              X              Y              Z
 -------------------------------------------------------------------
    1          1          -0.000057124    0.000000000   -0.000068816
    2          6          -0.000089455    0.000000000    0.000477257
    3          1           0.000022291    0.000000000   -0.000036662
    4          6           0.000045796    0.000000000   -0.000035022
    5          1           0.000090179    0.000000000    0.000045751
    6          6          -0.000314206    0.000000000    0.000327053
    7          7           0.000360540    0.000000000   -0.000172385
    8          1           0.000071065    0.000000000    0.000076745
    9          7          -0.000129087    0.000000000   -0.000613922
 -------------------------------------------------------------------
 Cartesian Forces:  Max     0.000613922 RMS     0.000195227

 GradGradGradGradGradGradGradGradGradGradGradGradGradGradGradGradGradGrad
 Berny optimization.
 Internal  Forces:  Max     0.000407722 RMS     0.000104803
 Search for a local minimum.
 Step number   1 out of a maximum of  48
 All quantities printed in internal units (Hartrees-Bohrs-Radians)
 Second derivative matrix not updated -- analytic derivatives used.
     Eigenvalues ---    0.00621   0.00938   0.01406   0.02583   0.05219
     Eigenvalues ---    0.05686   0.09600   0.10638   0.11245   0.12069
     Eigenvalues ---    0.22996   0.28023   0.35803   0.38128   0.39282
     Eigenvalues ---    0.39371   0.39837   0.45235   0.49016   0.49930
     Eigenvalues ---    0.551731000.000001000.000001000.000001000.00000
     Eigenvalues --- 1000.000001000.000001000.000001000.000001000.00000
     Eigenvalues --- 1000.000001000.000001000.000001000.000001000.00000
     Eigenvalues --- 1000.000001000.000001000.00000
 Angle between quadratic step and forces=  33.25 degrees.
 Linear search not attempted -- first point.
 Iteration  1 RMS(Cart)=  0.00030576 RMS(Int)=  0.00000014
 Iteration  2 RMS(Cart)=  0.00000013 RMS(Int)=  0.00000000
 Variable       Old X    -DE/DX   Delta X   Delta X   Delta X     New X
                                 (Linear)    (Quad)   (Total)
    R1        2.03505   0.00008   0.00000   0.00021   0.00021   2.03525
    R2        2.62139   0.00010   0.00000   0.00032   0.00032   2.62171
    R3        2.57404  -0.00038   0.00000  -0.00093  -0.00093   2.57312
    R4        2.03426   0.00004   0.00000   0.00010   0.00010   2.03436
    R5        2.65971   0.00006   0.00000   0.00018   0.00018   2.65989
    R6        2.03582   0.00009   0.00000   0.00026   0.00026   2.03608
    R7        2.55153  -0.00041   0.00000  -0.00087  -0.00087   2.55065
    R8        2.54920   0.00015   0.00000   0.00050   0.00050   2.54970
    R9        1.90483   0.00000   0.00000  -0.00001  -0.00001   1.90482
    A1        2.31050   0.00000   0.00000  -0.00045  -0.00045   2.31005
    A2        2.12636   0.00007   0.00000   0.00048   0.00048   2.12683
    A3        1.84633  -0.00008   0.00000  -0.00003  -0.00003   1.84630
    A4        2.21529   0.00002   0.00000   0.00017   0.00017   2.21546
    A5        1.83167  -0.00002   0.00000  -0.00020  -0.00020   1.83147
    A6        2.23623   0.00000   0.00000   0.00003   0.00003   2.23626
    A7        2.25156   0.00003   0.00000   0.00008   0.00008   2.25164
    A8        1.95303   0.00002   0.00000   0.00017   0.00017   1.95319
    A9        2.07860  -0.00005   0.00000  -0.00025  -0.00025   2.07835
   A10        1.80837  -0.00002   0.00000  -0.00010  -0.00010   1.80828
   A11        1.98537   0.00010   0.00000   0.00017   0.00017   1.98554
   A12        2.22766   0.00005   0.00000   0.00085   0.00085   2.22851
   A13        2.07016  -0.00015   0.00000  -0.00102  -0.00102   2.06914
    D1        0.00000   0.00000   0.00000   0.00000   0.00000   0.00000
    D2        3.14159   0.00000   0.00000   0.00000   0.00000   3.14159
    D3        3.14159   0.00000   0.00000   0.00000   0.00000   3.14159
    D4        0.00000   0.00000   0.00000   0.00000   0.00000   0.00000
    D5        3.14159   0.00000   0.00000   0.00000   0.00000   3.14159
    D6        0.00000   0.00000   0.00000   0.00000   0.00000   0.00000
    D7        0.00000   0.00000   0.00000   0.00000   0.00000   0.00000
    D8        3.14159   0.00000   0.00000   0.00000   0.00000   3.14159
    D9        3.14159   0.00000   0.00000   0.00000   0.00000   3.14159
   D10        0.00000   0.00000   0.00000   0.00000   0.00000   0.00000
   D11        0.00000   0.00000   0.00000   0.00000   0.00000   0.00000
   D12        3.14159   0.00000   0.00000   0.00000   0.00000   3.14159
   D13        0.00000   0.00000   0.00000   0.00000   0.00000   0.00000
   D14        3.14159   0.00000   0.00000   0.00000   0.00000   3.14159
   D15        0.00000   0.00000   0.00000   0.00000   0.00000   0.00000
   D16        3.14159   0.00000   0.00000   0.00000   0.00000   3.14159
         Item               Value     Threshold  Converged?
 Maximum Force            0.000408     0.000450     YES
 RMS     Force            0.000105     0.000300     YES
 Maximum Displacement     0.001044     0.001800     YES
 RMS     Displacement     0.000306     0.001200     YES
 Predicted change in Energy=-5.748497D-07
 Optimization completed.
    -- Stationary point found.
                         ----------------------------
                         !   Optimized Parameters   !
                         ! (Angstroms and Degrees)  !
 ------------------------                            -------------------------
 ! Name  Definition              Value          Derivative Info.             !
 -----------------------------------------------------------------------------
 ! R1    R(1,2)                  1.0769         -DE/DX =    0.0001           !
 ! R2    R(2,4)                  1.3872         -DE/DX =    0.0001           !
 ! R3    R(2,9)                  1.3621         -DE/DX =   -0.0004           !
 ! R4    R(3,4)                  1.0765         -DE/DX =    0.               !
 ! R5    R(4,6)                  1.4075         -DE/DX =    0.0001           !
 ! R6    R(5,6)                  1.0773         -DE/DX =    0.0001           !
 ! R7    R(6,7)                  1.3502         -DE/DX =   -0.0004           !
 ! R8    R(7,9)                  1.349          -DE/DX =    0.0002           !
 ! R9    R(8,9)                  1.008          -DE/DX =    0.               !
 ! A1    A(1,2,4)              132.3816         -DE/DX =    0.               !
 ! A2    A(1,2,9)              121.8312         -DE/DX =    0.0001           !
 ! A3    A(4,2,9)              105.7871         -DE/DX =   -0.0001           !
 ! A4    A(2,4,3)              126.9265         -DE/DX =    0.               !
 ! A5    A(2,4,6)              104.947          -DE/DX =    0.               !
 ! A6    A(3,4,6)              128.1265         -DE/DX =    0.               !
 ! A7    A(4,6,5)              129.0047         -DE/DX =    0.               !
 ! A8    A(4,6,7)              111.9003         -DE/DX =    0.               !
 ! A9    A(5,6,7)              119.0951         -DE/DX =   -0.0001           !
 ! A10   A(6,7,9)              103.6122         -DE/DX =    0.               !
 ! A11   A(2,9,7)              113.7534         -DE/DX =    0.0001           !
 ! A12   A(2,9,8)              127.6354         -DE/DX =    0.0001           !
 ! A13   A(7,9,8)              118.6112         -DE/DX =   -0.0001           !
 ! D1    D(1,2,4,3)              0.             -DE/DX =    0.               !
 ! D2    D(1,2,4,6)            180.             -DE/DX =    0.               !
 ! D3    D(9,2,4,3)            180.             -DE/DX =    0.               !
 ! D4    D(9,2,4,6)              0.             -DE/DX =    0.               !
 ! D5    D(1,2,9,7)            180.             -DE/DX =    0.               !
 ! D6    D(1,2,9,8)              0.             -DE/DX =    0.               !
 ! D7    D(4,2,9,7)              0.             -DE/DX =    0.               !
 ! D8    D(4,2,9,8)            180.             -DE/DX =    0.               !
 ! D9    D(2,4,6,5)            180.             -DE/DX =    0.               !
 ! D10   D(2,4,6,7)              0.             -DE/DX =    0.               !
 ! D11   D(3,4,6,5)              0.             -DE/DX =    0.               !
 ! D12   D(3,4,6,7)            180.             -DE/DX =    0.               !
 ! D13   D(4,6,7,9)              0.             -DE/DX =    0.               !
 ! D14   D(5,6,7,9)            180.             -DE/DX =    0.               !
 ! D15   D(6,7,9,2)              0.             -DE/DX =    0.               !
 ! D16   D(6,7,9,8)            180.             -DE/DX =    0.               !
 -----------------------------------------------------------------------------
 GradGradGradGradGradGradGradGradGradGradGradGradGradGradGradGradGradGrad

 1\1\GINC-AURUM\Freq\RMP2-FC\6-31+G(d,p)\C3H4N2\RDJ3\25-Apr-2000\0\\#N
 GEOM=ALLCHECK GUESS=TCHECK RMP2(FC)/6-31+G(D,P) FREQ\\1H pyrazole C3H4
 N2 casno=288131\\0,1\H,-1.8958648612,0.,-1.1745189216\C,-0.9425669852,
 0.,-0.673581853\H,0.6770598708,0.,-2.1749802101\C,0.3618031304,0.,-1.1
 456909576\H,2.2404267156,0.,0.0875737444\C,1.1659547149,0.,0.009418995
 6\N,0.4255396238,0.,1.1385114914\H,-1.5970054455,0.,1.3561889117\N,-0.
 8449341153,0.,0.6850398465\\Version=IBM-RS6000-G98RevA.4\State=1-A'\HF
 =-224.8074155\MP2=-225.5523401\RMSD=7.748e-10\RMSF=1.952e-04\Dipole=-0
 .8348749,0.,-0.4858282\DipoleDeriv=0.0029423,0.,-0.0377897,0.,0.215281
 9,0.,-0.0286385,0.,0.0685968,0.0754908,0.,-0.1977733,0.,-0.146691,0.,-
 0.2848458,0.,0.2365962,0.0943036,0.,0.0254682,0.,0.1932493,0.,0.028910
 2,0.,-0.0215715,-0.170457,0.,0.0596248,0.,-0.218985,0.,-0.0455843,0.,-
 0.0705071,-0.0289124,0.,-0.0045833,0.,0.1698506,0.,-0.0228141,0.,0.074
 6931,0.1405373,0.,0.0541296,0.,-0.1243904,0.,0.2082732,0.,0.1694735,0.
 0414455,0.,-0.1039117,0.,-0.2287346,0.,-0.1145595,0.,-0.464196,0.22915
 96,0.,-0.0652579,0.,0.3231785,0.,-0.0485911,0.,0.2366361,-0.3845097,0.
 ,0.2700933,0.,-0.1827595,0.,0.30785,0.,-0.2297212\Polar=53.7066557,0.,
 31.303928,0.7083869,0.,51.919475\PG=CS [SG(C3H4N2)]\NImag=0\\0.3178763
 1,0.,0.01752701,0.14055182,0.,0.12684501,-0.31410405,0.,-0.12258073,0.
 87285484,0.,-0.01760670,0.,0.,0.08934561,-0.13265748,0.,-0.12478856,0.
 09275334,0.,0.67092040,0.00039697,0.,-0.00085063,0.00246424,0.,0.02629
 715,0.07896786,0.,-0.00190333,0.,0.,-0.00558513,0.,0.,0.01996054,0.000
 37141,0.,-0.00010746,-0.00471187,0.,0.00054007,-0.09714540,0.,0.362959
 23,-0.00628570,0.,0.01009987,-0.35041056,0.,0.09332322,-0.08630531,0.,
 0.09166444,0.64564334,0.,-0.00295004,0.,0.,-0.04155055,0.,0.,-0.019729
 33,0.,0.,0.08723769,-0.01546350,0.,0.01316732,0.10099915,0.,-0.1403274
 9,0.08880676,0.,-0.35162017,-0.11102627,0.,0.86027017,-0.00016404,0.,0
 .00028650,-0.00042503,0.,-0.00082567,-0.00009770,0.,-0.00033288,-0.004
 18531,0.,0.00450648,0.38965493,0.,0.00096328,0.,0.,0.00578333,0.,0.,-0
 .00121521,0.,0.,-0.00295473,0.,0.,0.02217828,-0.00110530,0.,0.00119071
 ,-0.00327086,0.,-0.00600431,0.00086561,0.,0.00029642,-0.02281089,0.,0.
 00679827,0.02343317,0.,0.05779598,-0.00444600,0.,0.00508637,-0.0540371
 9,0.,-0.00467263,0.01319825,0.,0.01284293,-0.19120838,0.,-0.11655230,-
 0.37185610,0.,-0.03461191,0.89480169,0.,0.00552203,0.,0.,0.00169902,0.
 ,0.,-0.00647038,0.,0.,-0.04456725,0.,0.,-0.02419789,0.,0.,0.11301657,0
 .00080498,0.,-0.00238205,-0.06130415,0.,0.01868406,-0.01619926,0.,-0.0
 0873581,-0.09554456,0.,-0.25096354,-0.02516280,0.,-0.06152311,0.022430
 59,0.,0.60783845,0.00052986,0.,0.00004886,-0.05507925,0.,-0.04130557,-
 0.00207183,0.,-0.00096718,0.02398549,0.,0.02983412,-0.01189101,0.,0.02
 887660,-0.17391695,0.,0.13925046,0.52518487,0.,0.00648998,0.,0.,0.0161
 4651,0.,0.,0.00729141,0.,0.,0.01514754,0.,0.,-0.00869602,0.,0.,-0.0628
 2594,0.,0.,0.09628801,0.00265309,0.,-0.00587319,-0.02376592,0.,-0.0508
 8289,-0.00627072,0.,-0.00362575,-0.02260358,0.,-0.07601975,-0.00412302
 ,0.,0.00584865,0.08721818,0.,-0.27849793,-0.02665293,0.,0.53055410,-0.
 00030178,0.,0.00041808,0.01007953,0.,-0.00722268,0.00080221,0.,-0.0000
 9331,0.00212378,0.,-0.00347310,-0.00041637,0.,0.00153896,-0.00738282,0
 .,-0.00595305,-0.02046066,0.,0.02573104,0.30402326,0.,-0.00115157,0.,0
 .,-0.00948610,0.,0.,0.00217005,0.,0.,0.00390204,0.,0.,0.00236186,0.,0.
 ,0.00401770,0.,0.,-0.01285056,0.,0.,0.01226685,-0.00051664,0.,0.000241
 46,0.02584366,0.,-0.00425788,0.00130359,0.,0.00021996,-0.00264252,0.,-
 0.00728522,-0.00057405,0.,0.00103389,-0.00642321,0.,0.00126497,-0.0146
 7826,0.,0.01430427,-0.21185209,0.,0.25642419,0.00649843,0.,-0.03306014
 ,-0.11134253,0.,-0.02568968,-0.00735469,0.,-0.00162814,-0.03335735,0.,
 0.02236865,-0.00061937,0.,0.00708462,-0.10515250,0.,0.04167780,-0.2862
 8053,0.,-0.03218613,-0.28846715,0.,0.20953953,0.82607569,0.,-0.0068906
 8,0.,0.,-0.03874600,0.,0.,0.00548137,0.,0.,0.00546463,0.,0.,0.00577710
 ,0.,0.,0.01380614,0.,0.,-0.05699093,0.,0.,-0.00123028,0.,0.,0.07332866
 ,0.00536161,0.,-0.00829324,-0.00396261,0.,-0.36388339,0.00319292,0.,0.
 00007351,0.05954029,0.,-0.05401961,0.00279226,0.,-0.00543649,0.0346819
 8,0.,-0.02568504,-0.11440610,0.,-0.13580751,0.20090616,0.,-0.26194564,
 -0.18810651,0.,0.85499740\\0.00005712,0.,0.00006882,0.00008945,0.,-0.0
 0047726,-0.00002229,0.,0.00003666,-0.00004580,0.,0.00003502,-0.0000901
 8,0.,-0.00004575,0.00031421,0.,-0.00032705,-0.00036054,0.,0.00017238,-
 0.00007107,0.,-0.00007674,0.00012909,0.,0.00061392\\\@

 "I COULD HAVE DONE IT IN A MUCH MORE COMPLICATED WAY"
 SAID THE RED QUEEN, IMMENSELY PROUD.

                                      -- LEWIS CARROLL
 Job cpu time:  0 days  1 hours 15 minutes 28.4 seconds.
 File lengths (MBytes):  RWF= 1025 Int=    0 D2E=    0 Chk=    4 Scr=    1
 Normal termination of Gaussian 98.
