 Gaussian 98, Revision A.6,
 Gaussian 98:  SGI-G98RevA.6 19-Oct-1998

 -------------------
 #MP2/6-31G opt freq
 -------------------

 -------------------------------
 1H pyrazole C3H4N2 casno=288131
 -------------------------------
 Symbolic Z-matrix:
 Charge =  0 Multiplicity = 1

 SCF Done:  E(RHF) =  -224.631058486     A.U. after   14 cycles
 E2 =    -0.4504068845D+00 EUMP2 =    -0.22508146537096D+03
 SCF Done:  E(RHF) =  -224.682783213     A.U. after   14 cycles
 E2 =    -0.4720075689D+00 EUMP2 =    -0.22515479078204D+03
 SCF Done:  E(RHF) =  -224.681561555     A.U. after   14 cycles
 E2 =    -0.4957075592D+00 EUMP2 =    -0.22517726911425D+03
 SCF Done:  E(RHF) =  -224.682020412     A.U. after   12 cycles
 E2 =    -0.4957660220D+00 EUMP2 =    -0.22517778643405D+03
 SCF Done:  E(RHF) =  -224.681942690     A.U. after   12 cycles
 E2 =    -0.4960087311D+00 EUMP2 =    -0.22517795142116D+03
 SCF Done:  E(RHF) =  -224.681848798     A.U. after   11 cycles
 E2 =    -0.4961260526D+00 EUMP2 =    -0.22517797485084D+03
 SCF Done:  E(RHF) =  -224.681869942     A.U. after   10 cycles
 E2 =    -0.4961099037D+00 EUMP2 =    -0.22517797984580D+03
 Optimization completed.
    -- Stationary point found.
 Normal termination of Gaussian 98.

 -------------------------------------------------
 #N Geom=AllCheck Guess=TCheck RMP2(FC)/6-31G Freq
 -------------------------------------------------

 1H pyrazole C3H4N2 casno=288131
 -------------------------------
 Redundant internal coordinates taken from checkpointfile:
 /wrk/Gau-2893308.chk
 Charge =  0 Multiplicity = 1

                         Standard orientation:
 ---------------------------------------------------------------------
 Center     Atomic     Atomic              Coordinates (Angstroms)
 Number     Number      Type              X           Y           Z
 ---------------------------------------------------------------------
    1          1             0        2.131688    0.739698    0.000000
    2          6             0        1.133351    0.319841    0.000000
    3          1             0        1.287914   -1.899101    0.000000
    4          6             0        0.678126   -1.004381    0.000000
    5          1             0       -1.473422   -1.726736    0.000000
    6          6             0       -0.744882   -0.926429    0.000000
    7          7             0       -1.183681    0.376759    0.000000
    8          1             0       -0.059988    2.121022    0.000000
    9          7             0        0.000000    1.113374    0.000000
 ---------------------------------------------------------------------

 SCF Done:  E(RHF) =  -224.681869942     A.U. after    1 cycles
 E2 =    -0.4961099033D+00 EUMP2 =    -0.22517797984544D+03

  The electronic state is 1-A'.
 Alpha  occ. eigenvalues --  -15.64405 -15.60934 -11.29728 -11.26965 -11.23915
 Alpha  occ. eigenvalues --   -1.35890  -1.09496  -1.04897  -0.82605  -0.79134
 Alpha  occ. eigenvalues --   -0.73893  -0.60758  -0.59107  -0.58400  -0.56705
 Alpha  occ. eigenvalues --   -0.45149  -0.36616  -0.34127
 Alpha virt. eigenvalues --    0.15208   0.22312   0.22873   0.27103   0.29608
 Alpha virt. eigenvalues --    0.30701   0.38022   0.38722   0.44269   0.57368
 Alpha virt. eigenvalues --    0.62070   0.77665   0.78435   0.80329   0.83492

  Exact polarizability:  45.803   2.261  47.099   0.000   0.000  14.926
 Approx polarizability:  45.290   0.364  47.481   0.000   0.000  13.948

                     1                      2                      3
                    A"                     A"                     A"
 Frequencies --   566.6572               623.9896               673.6913
 Red. masses --     2.8617                 2.9742                 1.9083
 Frc consts  --     0.5414                 0.6823                 0.5103
 IR Inten    --    57.5585                 3.7547                15.1124
 Raman Activ --     0.0000                 0.0000                 0.0000

                     4                      5                      6
                    A"                     A"                     A"
 Frequencies --   691.9069               767.7684               801.0939
 Red. masses --     1.2693                 1.1112                 1.1927
 Frc consts  --     0.3580                 0.3859                 0.4510
 IR Inten    --   116.5739                21.7699                37.4865
 Raman Activ --     0.0000                 0.0000                 0.0000

                     7                      8                      9
                    A'                     A'                     A'
 Frequencies --   931.0200               941.7114              1003.3395
 Red. masses --     5.7093                 4.9470                 2.7804
 Frc consts  --     2.9158                 2.5848                 1.6491
 IR Inten    --     8.4754                 5.3750                14.7528
 Raman Activ --     0.0000                 0.0000                 0.0000

                    10                     11                     12
                    A'                     A'                     A'
 Frequencies --  1080.2529              1142.3149              1163.8261
 Red. masses --     1.6359                 2.4786                 1.6766
 Frc consts  --     1.1247                 1.9056                 1.3380
 IR Inten    --     8.4994                14.0676                 2.5502
 Raman Activ --     0.0000                 0.0000                 0.0000

                    13                     14                     15
                    A'                     A'                     A'
 Frequencies --  1235.1538              1364.2849              1433.1934
 Red. masses --     3.0188                 1.5698                 2.8564
 Frc consts  --     2.7135                 1.7214                 3.4569
 IR Inten    --     1.7320                 2.9931                10.6979
 Raman Activ --     0.0000                 0.0000                 0.0000

                    16                     17                     18
                    A'                     A'                     A'
 Frequencies --  1468.2763              1538.0434              3282.8663
 Red. masses --     2.3307                 2.1560                 1.0918
 Frc consts  --     2.9604                 3.0049                 6.9328
 IR Inten    --    12.3638                14.8518                 0.9497
 Raman Activ --     0.0000                 0.0000                 0.0000

                    19                     20                     21
                    A'                     A'                     A'
 Frequencies --  3296.3340              3312.4122              3700.9660
 Red. masses --     1.0976                 1.1076                 1.0832
 Frc consts  --     7.0269                 7.1602                 8.7412
 IR Inten    --     3.7463                 0.8906                89.3298
 Raman Activ --     0.0000                 0.0000                 0.0000

 - Thermochemistry -
 -------------------
 Temperature   298.150 Kelvin.  Pressure   1.00000 Atm.
 Atom  1 has atomic number  1 and mass   1.00783

 Molecular mass:    68.03745 amu.
 Principal axes and moments of inertia in atomic units:
                           1         2         3
     EIGENVALUES --   195.15889 198.71506 393.87395
           X            0.97732   0.21176   0.00000
           Y           -0.21176   0.97732   0.00000
           Z            0.00000   0.00000   1.00000
 THIS MOLECULE IS AN ASYMMETRIC TOP.
 ROTATIONAL SYMMETRY NUMBER  1.
 ROTATIONAL TEMPERATURES (KELVIN)      0.44381     0.43587     0.21990
 ROTATIONAL CONSTANTS (GHZ)            9.24755     9.08206     4.58203
 Zero-point vibrational energy     185535.5 (Joules/Mol)
                                   44.34404 (Kcal/Mol)
 WARNING-- EXPLICIT CONSIDERATION OF   1 DEGREES OF FREEDOM AS
           VIBRATIONS MAY CAUSE SIGNIFICANT ERROR
 VIBRATIONAL TEMPERATURES:    815.29   897.78   969.29   995.49  1104.64
          (KELVIN)           1152.59  1339.52  1354.90  1443.57  1554.23
                             1643.53  1674.48  1777.10  1962.89  2062.03
                             2112.51  2212.89  4723.29  4742.66  4765.79
                             5324.83

 Zero-point correction=                           0.070667 (Hartree/Particle)
 Thermal correction to Energy=                    0.074469
 Thermal correction to Enthalpy=                  0.075413
 Thermal correction to Gibbs Free Energy=         0.044328
 Sum of electronic and zero-point Energies=           -225.107313
 Sum of electronic and thermal Energies=              -225.103511
 Sum of electronic and thermal Enthalpies=            -225.102567
 Sum of electronic and thermal Free Energies=         -225.133652

                     E (Thermal)             CV                S
                      KCAL/MOL        CAL/MOL-KELVIN    CAL/MOL-KELVIN
 TOTAL                   46.730             13.723             65.424
 ELECTRONIC               0.000              0.000              0.000
 TRANSLATIONAL            0.889              2.981             38.570
 ROTATIONAL               0.889              2.981             24.239
 VIBRATIONAL             44.953              7.762              2.615
 VIBRATION  1             0.923              1.103              0.511
                       Q            LOG10(Q)             LN(Q)
 TOTAL BOT       0.407940D-20        -20.389404        -46.948338
 TOTAL V=0       0.130260D+13         12.114812         27.895386
 VIB (BOT)       0.418000D-32        -32.378824        -74.554998
 VIB (BOT)  1    0.272500D+00         -0.564633         -1.300115
 VIB (V=0)       0.133473D+01          0.125392          0.288727
 VIB (V=0)  1    0.106944D+01          0.029154          0.067131
 ELECTRONIC      0.100000D+01          0.000000          0.000000
 TRANSLATIONAL   0.220588D+08          7.343582         16.909224
 ROTATIONAL      0.442423D+05          4.645838         10.697436
 ***** Axes restored to original set *****
 -------------------------------------------------------------------
 Center     Atomic                   Forces (Hartrees/Bohr)
 Number     Number              X              Y              Z
 -------------------------------------------------------------------
    1          1           0.000011495    0.000000000   -0.000073190
    2          6          -0.000056918    0.000000000    0.000628503
    3          1          -0.000024895    0.000000000   -0.000050171
    4          6           0.000245501    0.000000000   -0.000279744
    5          1           0.000030522    0.000000000   -0.000029508
    6          6          -0.000420162    0.000000000    0.000352960
    7          7           0.000096267    0.000000000   -0.000161647
    8          1           0.000015769    0.000000000    0.000026183
    9          7           0.000102422    0.000000000   -0.000413384
 -------------------------------------------------------------------
 Cartesian Forces:  Max     0.000628503 RMS     0.000198703

 GradGradGradGradGradGradGradGradGradGradGradGradGradGradGradGradGradGrad
 Berny optimization.
 Internal  Forces:  Max     0.000357419 RMS     0.000097015
 Search for a local minimum.
 Step number   1 out of a maximum of  48
 All quantities printed in internal units (Hartrees-Bohrs-Radians)
 Second derivative matrix not updated -- analytic derivatives used.
     Eigenvalues ---    0.00724   0.00986   0.01425   0.02543   0.05661
     Eigenvalues ---    0.06033   0.10106   0.10978   0.11368   0.12318
     Eigenvalues ---    0.22003   0.26636   0.31386   0.34540   0.37950
     Eigenvalues ---    0.38199   0.38335   0.42944   0.46514   0.48793
     Eigenvalues ---    0.528071000.000001000.000001000.000001000.00000
     Eigenvalues --- 1000.000001000.000001000.000001000.000001000.00000
     Eigenvalues --- 1000.000001000.000001000.000001000.000001000.00000
     Eigenvalues --- 1000.000001000.000001000.00000
 Angle between quadratic step and forces=  26.75 degrees.
 Linear search not attempted -- first point.
 Iteration  1 RMS(Cart)=  0.00028582 RMS(Int)=  0.00000009
 Iteration  2 RMS(Cart)=  0.00000012 RMS(Int)=  0.00000003
 Variable       Old X    -DE/DX   Delta X   Delta X   Delta X     New X
                                 (Linear)    (Quad)   (Total)
    R1        2.04663   0.00002   0.00000   0.00008   0.00008   2.04672
    R2        2.64615   0.00011   0.00000   0.00048   0.00048   2.64663
    R3        2.61451  -0.00036   0.00000  -0.00109  -0.00109   2.61342
    R4        2.04611   0.00004   0.00000   0.00006   0.00006   2.04618
    R5        2.69313   0.00001   0.00000   0.00017   0.00017   2.69329
    R6        2.04515   0.00003   0.00000   0.00011   0.00011   2.04526
    R7        2.59852  -0.00028   0.00000  -0.00080  -0.00080   2.59772
    R8        2.63459  -0.00010   0.00000  -0.00009  -0.00009   2.63450
    R9        1.90755   0.00001   0.00000   0.00000   0.00000   1.90755
    A1        2.30001  -0.00010   0.00000  -0.00099  -0.00099   2.29902
    A2        2.13265   0.00004   0.00000   0.00061   0.00061   2.13326
    A3        1.85052   0.00006   0.00000   0.00039   0.00039   1.85091
    A4        2.21225   0.00007   0.00000   0.00002   0.00002   2.21227
    A5        1.84718  -0.00022   0.00000  -0.00084  -0.00084   1.84634
    A6        2.22375   0.00015   0.00000   0.00082   0.00082   2.22457
    A7        2.25456  -0.00010   0.00000  -0.00066  -0.00066   2.25390
    A8        1.95031   0.00013   0.00000   0.00051   0.00051   1.95082
    A9        2.07831  -0.00003   0.00000   0.00014   0.00014   2.07846
   A10        1.80267  -0.00005   0.00000  -0.00016  -0.00016   1.80251
   A11        1.97409   0.00007   0.00000   0.00010   0.00010   1.97420
   A12        2.24110  -0.00001   0.00000   0.00017   0.00017   2.24127
   A13        2.06800  -0.00006   0.00000  -0.00028  -0.00028   2.06772
    D1        0.00000   0.00000   0.00000   0.00000   0.00000   0.00000
    D2        3.14159   0.00000   0.00000   0.00000   0.00000   3.14159
    D3        3.14159   0.00000   0.00000   0.00000   0.00000   3.14159
    D4        0.00000   0.00000   0.00000   0.00000   0.00000   0.00000
    D5        3.14159   0.00000   0.00000   0.00000   0.00000   3.14159
    D6        0.00000   0.00000   0.00000   0.00000   0.00000   0.00000
    D7        0.00000   0.00000   0.00000   0.00000   0.00000   0.00000
    D8        3.14159   0.00000   0.00000   0.00000   0.00000   3.14159
    D9        3.14159   0.00000   0.00000   0.00000   0.00000   3.14159
   D10        0.00000   0.00000   0.00000   0.00000   0.00000   0.00000
   D11        0.00000   0.00000   0.00000   0.00000   0.00000   0.00000
   D12        3.14159   0.00000   0.00000   0.00000   0.00000   3.14159
   D13        0.00000   0.00000   0.00000   0.00000   0.00000   0.00000
   D14        3.14159   0.00000   0.00000   0.00000   0.00000   3.14159
   D15        0.00000   0.00000   0.00000   0.00000   0.00000   0.00000
   D16        3.14159   0.00000   0.00000   0.00000   0.00000   3.14159
         Item               Value     Threshold  Converged?
 Maximum Force            0.000357     0.000450     YES
 RMS     Force            0.000097     0.000300     YES
 Maximum Displacement     0.000839     0.001800     YES
 RMS     Displacement     0.000286     0.001200     YES
 Predicted change in Energy=-6.471081D-07
 Optimization completed.
    -- Stationary point found.
                         ----------------------------
                         !   Optimized Parameters   !
                         ! (Angstroms and Degrees)  !
 ------------------------                            -------------------------
 ! Name  Definition              Value          Derivative Info.             !
 -----------------------------------------------------------------------------
 ! R1    R(1,2)                  1.083          -DE/DX =    0.               !
 ! R2    R(2,4)                  1.4003         -DE/DX =    0.0001           !
 ! R3    R(2,9)                  1.3835         -DE/DX =   -0.0004           !
 ! R4    R(3,4)                  1.0828         -DE/DX =    0.               !
 ! R5    R(4,6)                  1.4251         -DE/DX =    0.               !
 ! R6    R(5,6)                  1.0822         -DE/DX =    0.               !
 ! R7    R(6,7)                  1.3751         -DE/DX =   -0.0003           !
 ! R8    R(7,9)                  1.3942         -DE/DX =   -0.0001           !
 ! R9    R(8,9)                  1.0094         -DE/DX =    0.               !
 ! A1    A(1,2,4)              131.7809         -DE/DX =   -0.0001           !
 ! A2    A(1,2,9)              122.192          -DE/DX =    0.               !
 ! A3    A(4,2,9)              106.0271         -DE/DX =    0.0001           !
 ! A4    A(2,4,3)              126.7527         -DE/DX =    0.0001           !
 ! A5    A(2,4,6)              105.8358         -DE/DX =   -0.0002           !
 ! A6    A(3,4,6)              127.4115         -DE/DX =    0.0001           !
 ! A7    A(4,6,5)              129.1769         -DE/DX =   -0.0001           !
 ! A8    A(4,6,7)              111.7445         -DE/DX =    0.0001           !
 ! A9    A(5,6,7)              119.0786         -DE/DX =    0.               !
 ! A10   A(6,7,9)              103.2854         -DE/DX =    0.               !
 ! A11   A(2,9,7)              113.1072         -DE/DX =    0.0001           !
 ! A12   A(2,9,8)              128.4054         -DE/DX =    0.               !
 ! A13   A(7,9,8)              118.4874         -DE/DX =   -0.0001           !
 ! D1    D(1,2,4,3)              0.             -DE/DX =    0.               !
 ! D2    D(1,2,4,6)            180.             -DE/DX =    0.               !
 ! D3    D(9,2,4,3)            180.             -DE/DX =    0.               !
 ! D4    D(9,2,4,6)              0.             -DE/DX =    0.               !
 ! D5    D(1,2,9,7)            180.             -DE/DX =    0.               !
 ! D6    D(1,2,9,8)              0.             -DE/DX =    0.               !
 ! D7    D(4,2,9,7)              0.             -DE/DX =    0.               !
 ! D8    D(4,2,9,8)            180.             -DE/DX =    0.               !
 ! D9    D(2,4,6,5)            180.             -DE/DX =    0.               !
 ! D10   D(2,4,6,7)              0.             -DE/DX =    0.               !
 ! D11   D(3,4,6,5)              0.             -DE/DX =    0.               !
 ! D12   D(3,4,6,7)            180.             -DE/DX =    0.               !
 ! D13   D(4,6,7,9)              0.             -DE/DX =    0.               !
 ! D14   D(5,6,7,9)            180.             -DE/DX =    0.               !
 ! D15   D(6,7,9,2)              0.             -DE/DX =    0.               !
 ! D16   D(6,7,9,8)            180.             -DE/DX =    0.               !
 -----------------------------------------------------------------------------
 GradGradGradGradGradGradGradGradGradGradGradGradGradGradGradGradGradGrad

 1\1\ NATIONAL INSTITUTE OF STANDARDS AND TECHNOLOGY-AMUR\Freq\RMP2-FC\
 6-31G\C3H4N2\RDJ3\12-Apr-2000\0\\#N GEOM=ALLCHECK GUESS=TCHECK RMP2(FC
 )/6-31G FREQ\\1H pyrazole C3H4N2 casno=288131\\0,1\H,-1.9082066958,0.,
 -1.2041569507\C,-0.9571508978,0.,-0.6860357328\H,0.6803181904,0.,-2.19
 14544826\C,0.3616827761,0.,-1.1566428397\H,2.2687299768,0.,0.073856127
 2\C,1.1887405983,0.,0.0039619841\N,0.4442223198,0.,1.1600492459\H,-1.6
 199687359,0.,1.3704145474\N,-0.8700091191,0.,0.6947565097\\Version=SGI
 -G98RevA.6\State=1-A'\HF=-224.6818699\MP2=-225.1779798\RMSD=1.741e-09\
 RMSF=1.987e-04\Dipole=-0.8386159,0.,-0.5203617\DipoleDeriv=-0.0050686,
 0.,-0.044087,0.,0.2061638,0.,-0.0447588,0.,0.0666822,0.0954796,0.,-0.1
 375337,0.,-0.0943038,0.,-0.26559,0.,0.2412445,0.0910951,0.,0.0311355,0
 .,0.1723276,0.,0.0361568,0.,-0.0353631,-0.2176444,0.,0.0462913,0.,-0.1
 876073,0.,-0.0737655,0.,-0.0095557,-0.0409218,0.,-0.0151281,0.,0.16473
 84,0.,-0.0116167,0.,0.0824505,0.1780002,0.,0.0841593,0.,-0.1077742,0.,
 0.2257807,0.,0.025854,0.0992527,0.,-0.0778998,0.,-0.2116364,0.,-0.0733
 015,0.,-0.3326342,0.2319375,0.,-0.0385757,0.,0.3881499,0.,-0.0422382,0
 .,0.2330633,-0.4321302,0.,0.1516383,0.,-0.3300579,0.,0.2493333,0.,-0.2
 717416\Polar=48.7993677,0.,14.92627,-0.1318619,0.,44.1032625\PG=CS [SG
 (C3H4N2)]\NImag=0\\0.30445580,0.,0.01631920,0.13792823,0.,0.12898691,-
 0.30252226,0.,-0.12290581,0.84789105,0.,-0.01608488,0.,0.,0.09364126,-
 0.13212209,0.,-0.12535393,0.10239922,0.,0.62525744,0.00007865,0.,-0.00
 078541,0.00178245,0.,0.02734951,0.08076631,0.,-0.00180592,0.,0.,-0.005
 21811,0.,0.,0.01941529,0.00079052,0.,-0.00006843,-0.00602969,0.,0.0009
 6286,-0.09355595,0.,0.35141737,-0.00564786,0.,0.01169127,-0.32663433,0
 .,0.08476927,-0.08613238,0.,0.08940250,0.61376669,0.,-0.00314068,0.,0.
 ,-0.04756852,0.,0.,-0.01938197,0.,0.,0.09452745,-0.01550497,0.,0.01271
 296,0.08781639,0.,-0.13728645,0.08590696,0.,-0.34189168,-0.11553616,0.
 ,0.83001185,-0.00027563,0.,0.00024991,0.00016752,0.,0.00006884,-0.0002
 6144,0.,-0.00092063,-0.00261715,0.,0.00542521,0.38089894,0.,0.00076587
 ,0.,0.,0.00566208,0.,0.,-0.00085354,0.,0.,-0.00344156,0.,0.,0.02107238
 ,-0.00112248,0.,0.00102305,-0.00345598,0.,-0.00565658,0.00077398,0.,-0
 .00005080,-0.02324992,0.,0.00643443,0.01989344,0.,0.05779741,-0.003907
 34,0.,0.00524863,-0.06217381,0.,-0.00794979,0.01268962,0.,0.01282133,-
 0.18069328,0.,-0.09488460,-0.36629110,0.,-0.03071576,0.86658343,0.,0.0
 0561024,0.,0.,0.00549075,0.,0.,-0.00648036,0.,0.,-0.04998079,0.,0.,-0.
 02294382,0.,0.,0.11575696,0.00035252,0.,-0.00223364,-0.06026744,0.,0.0
 1557101,-0.01822688,0.,-0.00874347,-0.08092991,0.,-0.22562805,-0.02100
 282,0.,-0.05972198,0.03017134,0.,0.54055688,0.00038660,0.,-0.00015259,
 -0.05650614,0.,-0.03990091,-0.00229942,0.,-0.00037903,0.02072130,0.,0.
 02506280,-0.01033380,0.,0.02910255,-0.15305577,0.,0.11809170,0.4194072
 5,0.,0.00580450,0.,0.,0.01747054,0.,0.,0.00683574,0.,0.,0.01741942,0.,
 0.,-0.00799566,0.,0.,-0.06481672,0.,0.,0.09590591,0.00335247,0.,-0.004
 89104,-0.02658016,0.,-0.05424635,-0.00653939,0.,-0.00207639,-0.0209482
 8,0.,-0.08139507,-0.00561774,0.,0.00474257,0.05678319,0.,-0.23288495,-
 0.03016106,0.,0.47554795,-0.00031967,0.,0.00059210,0.01076320,0.,-0.00
 956049,0.00073701,0.,-0.00009969,0.00232278,0.,-0.00409024,-0.00059895
 ,0.,0.00155050,-0.00711105,0.,-0.00611996,-0.01706517,0.,0.02718173,0.
 29876954,0.,-0.00082738,0.,0.,-0.00817941,0.,0.,0.00200962,0.,0.,0.004
 14568,0.,0.,0.00208328,0.,0.,0.00397728,0.,0.,-0.01058701,0.,0.,0.0141
 5435,-0.00074243,0.,-0.00028094,0.02692143,0.,-0.00401047,0.00128934,0
 .,-0.00000847,-0.00248687,0.,-0.00711723,-0.00051720,0.,0.00108658,-0.
 00741359,0.,0.00084921,-0.01666039,0.,0.01361335,-0.20737828,0.,0.2563
 1595,0.00775171,0.,-0.03186634,-0.11276766,0.,-0.02505356,-0.00736080,
 0.,-0.00202937,-0.03508577,0.,0.02580462,-0.00068840,0.,0.00722368,-0.
 10604070,0.,0.03793146,-0.20125485,0.,0.00252924,-0.28749769,0.,0.2069
 8798,0.74294414,0.,-0.00664097,0.,0.,-0.04521371,0.,0.,0.00547924,0.,0
 .,0.00742098,0.,0.,0.00565097,0.,0.,0.01338646,0.,0.,-0.06003672,0.,0.
 ,-0.00677640,0.,0.,0.08673014,0.00706823,0.,-0.00989495,0.00210204,0.,
 -0.31523754,0.00378785,0.,0.00045902,0.05728810,0.,-0.05584076,0.00242
 100,0.,-0.00565468,0.03593924,0.,-0.02776502,-0.08500308,0.,-0.1184100
 8,0.19792432,0.,-0.26044798,-0.22152771,0.,0.79279199\\-0.00001149,0.,
 0.00007319,0.00005692,0.,-0.00062850,0.00002490,0.,0.00005017,-0.00024
 550,0.,0.00027974,-0.00003052,0.,0.00002951,0.00042016,0.,-0.00035296,
 -0.00009627,0.,0.00016165,-0.00001577,0.,-0.00002618,-0.00010242,0.,0.
 00041338\\\@

 I DON'T PRETEND TO UNDERSTAND THE UNIVERSE --
 IT'S A GREAT DEAL BIGGER THAN I AM.
       -- ATTR. TO WILLIAM ALLINGHAM (1828-89)
 Job cpu time:  0 days  0 hours  5 minutes 15.6 seconds.
 File lengths (MBytes):  RWF=  214 Int=    0 D2E=    0 Chk=    3 Scr=    1
 Normal termination of Gaussian 98.
