 Gaussian 09, Revision A.02,
 Gaussian 09:  AM64L-G09RevA.02 11-Jun-2009

 -------------
 #PM6 opt freq
 -------------

 ------------------------------------------------
 1H pyrazole C3H4N2 casno=288131 method=1 basis=1
 ------------------------------------------------
 Symbolic Z-matrix:
 Charge =  0 Multiplicity = 1

 SCF Done:  E(RPM6) =  0.172077344445     A.U. after   15 cycles
 SCF Done:  E(RPM6) =  0.870938648257E-01 A.U. after   13 cycles
 SCF Done:  E(RPM6) =  0.689574976969E-01 A.U. after   13 cycles
 SCF Done:  E(RPM6) =  0.684822390213E-01 A.U. after   12 cycles
 SCF Done:  E(RPM6) =  0.683507811049E-01 A.U. after   12 cycles
 SCF Done:  E(RPM6) =  0.683448329901E-01 A.U. after   10 cycles
 SCF Done:  E(RPM6) =  0.683430721623E-01 A.U. after    9 cycles
 Optimization completed.
    -- Stationary point found.
 Normal termination of Gaussian 09 at Fri Nov  5 06:04:08 2010.

 -------------------------------------------------------------
 #P Geom=AllCheck Guess=TCheck SCRF=Check GenChk RPM6/ZDO Freq
 -------------------------------------------------------------

 1H pyrazole C3H4N2 casno=288131 method=1 basis=1
 ------------------------------------------------
 Redundant internal coordinates taken from checkpoint file:
 /gaussian/Gau-31079.chk
 Charge =  0 Multiplicity = 1

                         Standard orientation:
 ---------------------------------------------------------------------
 Center     Atomic      Atomic             Coordinates (Angstroms)
 Number     Number       Type             X           Y           Z
 ---------------------------------------------------------------------
      1          1           0        2.137782    0.677539    0.000000
      2          6           0        1.132468    0.301392    0.000000
      3          1           0        1.237107   -1.913701    0.000000
      4          6           0        0.661424   -1.012010    0.000000
      5          1           0       -1.478436   -1.724817    0.000000
      6          6           0       -0.766254   -0.916660    0.000000
      7          7           0       -1.146920    0.392472    0.000000
      8          1           0       -0.033843    2.128494    0.000000
      9          7           0        0.000000    1.121264    0.000000
 ---------------------------------------------------------------------

 SCF Done:  E(RPM6) =  0.683430721625E-01 A.U. after    2 cycles

 The electronic state is 1-A'.
 Alpha  occ. eigenvalues --   -1.28717  -1.02710  -0.97458  -0.78175  -0.76904
 Alpha  occ. eigenvalues --   -0.67997  -0.56177  -0.55998  -0.53622  -0.50663
 Alpha  occ. eigenvalues --   -0.41348  -0.36972  -0.36380
 Alpha virt. eigenvalues --    0.02212   0.04903   0.06223   0.12889   0.15448
 Alpha virt. eigenvalues --    0.18268   0.19459   0.20150   0.21972   0.22439
 Alpha virt. eigenvalues --    0.22662

 Mulliken atomic charges:
              1
     1  H    0.173721
     2  C   -0.142471
     3  H    0.174001
     4  C   -0.262448
     5  H    0.179107
     6  C   -0.096041
     7  N   -0.222974
     8  H    0.276106
     9  N   -0.079002
 Sum of Mulliken atomic charges =   0.00000

 Dipole moment (field-independent basis, Debye):
    X=              2.1515    Y=              1.0587    Z=              0.0000  Tot=              2.3979
 N-N= 1.002084344517D+02 E-N=-1.354976997868D+02  KE=-4.712008135065D+01
  Exact polarizability:  43.051   1.560  47.681   0.000   0.000   8.515
 Approx polarizability:  38.591   0.635  44.231   0.000   0.000   5.185
 Leave Link  601 at Fri Nov  5 06:04:09 2010, MaxMem=   24000000 cpu:       0.0
 (Enter /usr/local/gaussian09-A02-64/g09/l701.exe)
 Compute integral second derivatives.
 ... and contract with generalized density number  0.
 Leave Link  701 at Fri Nov  5 06:04:09 2010, MaxMem=   24000000 cpu:       0.0
 (Enter /usr/local/gaussian09-A02-64/g09/l702.exe)
 L702 exits ... SP integral derivatives will be done elsewhere.

                     1                      2                      3
                    A"                     A"                     A"
 Frequencies --   511.6132               545.2369               628.7064
 Red. masses --     2.9454                 2.8701                 1.1660
 Frc consts  --     0.4542                 0.5027                 0.2716
 IR Inten    --     3.5785                 0.4386               105.1233

                     4                      5                      6
                    A'                     A"                     A'
 Frequencies --   817.7705               831.4871               853.0197
 Red. masses --     6.9584                 1.1456                 5.7722
 Frc consts  --     2.7417                 0.4666                 2.4746
 IR Inten    --     2.3846               134.0604                13.4847

                     7                      8                      9
                    A"                     A"                     A'
 Frequencies --   879.0342               914.7903              1090.0258
 Red. masses --     1.4132                 1.6419                 1.1404
 Frc consts  --     0.6434                 0.8096                 0.7983
 IR Inten    --     0.0001                 0.6146                26.5477

                    10                     11                     12
                    A'                     A'                     A'
 Frequencies --  1099.0182              1174.3627              1242.6663
 Red. masses --     1.1702                 1.2048                 3.6270
 Frc consts  --     0.8327                 0.9790                 3.3000
 IR Inten    --    24.0591                12.2251                19.7682

                    13                     14                     15
                    A'                     A'                     A'
 Frequencies --  1303.7469              1393.1967              1418.0935
 Red. masses --     1.6977                 7.8461                 4.3620
 Frc consts  --     1.7002                 8.9728                 5.1682
 IR Inten    --    17.5275                15.8046                 0.8577

                    16                     17                     18
                    A'                     A'                     A'
 Frequencies --  1427.1898              1563.7868              2775.2936
 Red. masses --     6.2160                 4.1630                 1.0756
 Frc consts  --     7.4597                 5.9980                 4.8810
 IR Inten    --     1.9007                 6.6772               264.4776

                    19                     20                     21
                    A'                     A'                     A'
 Frequencies --  2779.6910              2797.2695              2811.8421
 Red. masses --     1.0787                 1.0763                 1.0811
 Frc consts  --     4.9107                 4.9621                 5.0362
 IR Inten    --    12.1418               319.0508                95.0789

 - Thermochemistry -
 -------------------
 Temperature   298.150 Kelvin.  Pressure   1.00000 Atm.
 Atom     1 has atomic number  1 and mass   1.00783

 Molecular mass:    68.03745 amu.
 Principal axes and moments of inertia in atomic units:
                           1         2         3
     Eigenvalues --   194.01243 196.44839 390.46082
           X           -0.33866   0.94091   0.00000
           Y            0.94091   0.33866   0.00000
           Z            0.00000   0.00000   1.00000
 This molecule is an asymmetric top.
 Rotational symmetry number  1.
 Rotational temperatures (Kelvin)      0.44643     0.44090     0.22182
 Rotational constants (GHZ):           9.30219     9.18685     4.62208
 Zero-point vibrational energy     172608.2 (Joules/Mol)
                                   41.25435 (Kcal/Mol)
 Warning -- explicit consideration of   2 degrees of freedom as
           vibrations may cause significant error
 Vibrational temperatures:    736.10   784.47   904.57  1176.59  1196.32
          (Kelvin)           1227.30  1264.73  1316.18  1568.30  1581.24
                             1689.64  1787.92  1875.80  2004.50  2040.32
                             2053.41  2249.94  3993.02  3999.35  4024.64
                             4045.61

 Zero-point correction=                           0.065743 (Hartree/Particle)
 Thermal correction to Energy=                    0.069566
 Thermal correction to Enthalpy=                  0.070510
 Thermal correction to Gibbs Free Energy=         0.039392
 Sum of electronic and zero-point Energies=              0.134086
 Sum of electronic and thermal Energies=                 0.137909
 Sum of electronic and thermal Enthalpies=               0.138853
 Sum of electronic and thermal Free Energies=            0.107735

                     E (Thermal)             CV                S
                      KCal/Mol        Cal/Mol-Kelvin    Cal/Mol-Kelvin
 Total                   43.653             13.589             65.493
 Electronic               0.000              0.000              0.000
 Translational            0.889              2.981             38.570
 Rotational               0.889              2.981             24.213
 Vibrational             41.876              7.627              2.710
 Vibration     1          0.867              1.224              0.630
 Vibration     2          0.900              1.150              0.554

 Optimization completed.
    -- Stationary point found.
 Normal termination of Gaussian 09 at Fri Nov  5 06:04:09 2010.
