 Gaussian 03, Revision D.01,
 Gaussian 03:  AM64L-G03RevD.01 13-Oct-2005

 -----------------------
 #LSDA/6-311G** opt freq
 -----------------------

 ------------------------------------------------------------
 1hpyraz 1H-Pyrazole casno=288131 method=51 basis=21 config=1
 ------------------------------------------------------------
 Symbolic Z-matrix:
 Charge =  0 Multiplicity = 1

 SCF Done:  E(RS-VWN) =  -225.022427163     A.U. after   15 cycles
 SCF Done:  E(RS-VWN) =  -225.024208090     A.U. after   12 cycles
 SCF Done:  E(RS-VWN) =  -225.024276805     A.U. after    9 cycles
 SCF Done:  E(RS-VWN) =  -225.024286276     A.U. after    9 cycles
 SCF Done:  E(RS-VWN) =  -225.024287451     A.U. after    8 cycles
 Optimization completed.
    -- Stationary point found.
 Normal termination of Gaussian 03 at Mon Mar 17 13:57:47 2008.

 --------------------------------------------------------------------
 #N Geom=AllCheck Guess=Read SCRF=Check GenChk RSVWN/6-311G(d,p) Freq
 --------------------------------------------------------------------

 1hpyraz 1H-Pyrazole casno=288131 method=51 basis=21 config=1
 ------------------------------------------------------------
 Redundant internal coordinates taken from checkpoint file:
 /gaussian/Gau-2951.chk
 Charge =  0 Multiplicity = 1

                         Standard orientation:
 ---------------------------------------------------------------------
 Center     Atomic     Atomic              Coordinates (Angstroms)
 Number     Number      Type              X           Y           Z
 ---------------------------------------------------------------------
    1          1             0        2.108248    0.724546    0.000000
    2          6             0        1.105806    0.303500    0.000000
    3          1             0        1.258748   -1.899979    0.000000
    4          6             0        0.655473   -0.996505    0.000000
    5          1             0       -1.488417   -1.676782    0.000000
    6          6             0       -0.742087   -0.884063    0.000000
    7          7             0       -1.135466    0.382920    0.000000
    8          1             0       -0.045471    2.092789    0.000000
    9          7             0        0.000000    1.077341    0.000000
 ---------------------------------------------------------------------

 SCF Done:  E(RS-VWN) =  -225.024287451     A.U. after    1 cycles

 The electronic state is 1-A'.
 Alpha  occ. eigenvalues --  -13.94856 -13.88289  -9.83112  -9.80848  -9.79174
 Alpha  occ. eigenvalues --   -0.98905  -0.76220  -0.72882  -0.57275  -0.56285
 Alpha  occ. eigenvalues --   -0.51209  -0.42234  -0.41991  -0.40082  -0.37341
 Alpha  occ. eigenvalues --   -0.26350  -0.25536  -0.24690
 Alpha virt. eigenvalues --   -0.03900  -0.00060   0.00639   0.04208   0.05584
 Alpha virt. eigenvalues --    0.07500   0.14120   0.15295   0.19178   0.21051
 Alpha virt. eigenvalues --    0.29135   0.32346   0.33073   0.34035   0.35167

 Mulliken atomic charges:
              1
     1  H    0.137119
     2  C    0.118767
     3  H    0.130571
     4  C   -0.358268
     5  H    0.131763
     6  C    0.036641
     7  N   -0.189641
     8  H    0.258086
     9  N   -0.265039
 Sum of Mulliken charges=   0.00000

 Dipole moment (field-independent basis, Debye):
    X=     2.0609    Y=     0.9976    Z=     0.0000  Tot=     2.2897
 Quadrupole moment (field-independent basis, Debye-Ang):
   XX=   -29.6288   YY=   -21.9571   ZZ=   -31.9395
   XY=     2.4699   XZ=     0.0000   YZ=     0.0000

  Exact polarizability:  49.522   1.958  50.199   0.000   0.000  22.362
 Approx polarizability:  98.864   1.337  99.676   0.000   0.000  36.982

                     1                      2                      3
                    A"                     A"                     A"
 Frequencies --   574.9122               633.9694               692.6645
 Red. masses --     1.7229                 2.3315                 2.7129
 Frc consts  --     0.3355                 0.5521                 0.7669
 IR Inten    --    59.6802                 0.1010                22.1043

                     4                      5                      6
                    A"                     A"                     A"
 Frequencies --   722.4181               809.9568               867.0261
 Red. masses --     1.2411                 1.2295                 1.3718
 Frc consts  --     0.3816                 0.4752                 0.6076
 IR Inten    --    91.8963                15.1950                 2.9677

                     7                      8                      9
                    A'                     A'                     A'
 Frequencies --   902.2862               923.3837              1027.3749
 Red. masses --     4.9185                 2.9544                 1.4170
 Frc consts  --     2.3593                 1.4841                 0.8812
 IR Inten    --     8.9766                 3.3856                12.2780

                    10                     11                     12
                    A'                     A'                     A'
 Frequencies --  1033.8844              1131.2844              1195.1657
 Red. masses --     1.4227                 1.5420                 4.4405
 Frc consts  --     0.8960                 1.1627                 3.7371
 IR Inten    --    42.4051                15.3439                 3.2892

                    13                     14                     15
                    A'                     A'                     A'
 Frequencies --  1255.0530              1367.7676              1421.8568
 Red. masses --     1.5247                 3.3913                 5.4361
 Frc consts  --     1.4150                 3.7381                 6.4751
 IR Inten    --     6.8492                 1.3349                11.1226

                    16                     17                     18
                    A'                     A'                     A'
 Frequencies --  1462.4920              1536.0399              3171.5845
 Red. masses --     3.0457                 3.7594                 1.0942
 Frc consts  --     3.8382                 5.2260                 6.4851
 IR Inten    --     4.3597                 5.0898                 0.9180

                    19                     20                     21
                    A'                     A'                     A'
 Frequencies --  3187.1607              3205.9226              3571.0685
 Red. masses --     1.0941                 1.1084                 1.0817
 Frc consts  --     6.5482                 6.7121                 8.1273
 IR Inten    --     0.1246                 0.0260                89.8698

 - Thermochemistry -
 -------------------
 Temperature   298.150 Kelvin.  Pressure   1.00000 Atm.
 Atom  1 has atomic number  1 and mass   1.00783

 Molecular mass:    68.03745 amu.
 Principal axes and moments of inertia in atomic units:
                           1         2         3
     EIGENVALUES --   185.24761 189.23913 374.48674
           X            0.88699   0.46179   0.00000
           Y           -0.46179   0.88699   0.00000
           Z            0.00000   0.00000   1.00000
 This molecule is an asymmetric top.
 Rotational symmetry number  1.
 Rotational temperatures (Kelvin)      0.46756     0.45770     0.23129
 Rotational constants (GHZ):           9.74232     9.53683     4.81924
 Zero-point vibrational energy     183586.5 (Joules/Mol)
                                   43.87824 (Kcal/Mol)
 Warning -- explicit consideration of   1 degrees of freedom as
           vibrations may cause significant error
 Vibrational temperatures:    827.17   912.14   996.59  1039.40  1165.35
          (Kelvin)           1247.46  1298.19  1328.54  1478.16  1487.53
                             1627.66  1719.57  1805.74  1967.91  2045.73
                             2104.20  2210.02  4563.20  4585.61  4612.60
                             5137.96

 Zero-point correction=                           0.069924 (Hartree/Particle)
 Thermal correction to Energy=                    0.073676
 Thermal correction to Enthalpy=                  0.074620
 Thermal correction to Gibbs Free Energy=         0.043678
 Sum of electronic and zero-point Energies=           -224.954363
 Sum of electronic and thermal Energies=              -224.950611
 Sum of electronic and thermal Enthalpies=            -224.949667
 Sum of electronic and thermal Free Energies=         -224.980610

                     E (Thermal)             CV                S
                      KCal/Mol        Cal/Mol-Kelvin    Cal/Mol-Kelvin
 Total                   46.232             13.477             65.124
 Electronic               0.000              0.000              0.000
 Translational            0.889              2.981             38.570
 Rotational               0.889              2.981             24.088
 Vibrational             44.455              7.515              2.465
 Vibration  1             0.931              1.086              0.495

 Optimization completed.
    -- Stationary point found.
 Normal termination of Gaussian 03 at Mon Mar 17 13:59:42 2008.
