 Gaussian 03, Revision D.01,
 Gaussian 03:  AM64L-G03RevD.01 13-Oct-2005

 ----------------------
 #LSDA/cc-pVTZ opt freq
 ----------------------

 -----------------------------------------------------------
 1hpyraz 1H-Pyrazole casno=288131 method=51 basis=6 config=1
 -----------------------------------------------------------
 Symbolic Z-matrix:
 Charge =  0 Multiplicity = 1

 SCF Done:  E(RS-VWN) =  -225.051656312     A.U. after   14 cycles
 SCF Done:  E(RS-VWN) =  -225.053139611     A.U. after   12 cycles
 SCF Done:  E(RS-VWN) =  -225.053213407     A.U. after    9 cycles
 SCF Done:  E(RS-VWN) =  -225.053223654     A.U. after    9 cycles
 SCF Done:  E(RS-VWN) =  -225.053225047     A.U. after    7 cycles
 Optimization completed.
    -- Stationary point found.
 Normal termination of Gaussian 03 at Fri Mar  7 20:42:05 2008.

 ----------------------------------------------------------------
 #N Geom=AllCheck Guess=Read SCRF=Check GenChk RSVWN/CC-pVTZ Freq
 ----------------------------------------------------------------

 1hpyraz 1H-Pyrazole casno=288131 method=51 basis=6 config=1
 -----------------------------------------------------------
 Redundant internal coordinates taken from checkpoint file:
 /gaussian/Gau-22033.chk
 Charge =  0 Multiplicity = 1

                         Standard orientation:
 ---------------------------------------------------------------------
 Center     Atomic     Atomic              Coordinates (Angstroms)
 Number     Number      Type              X           Y           Z
 ---------------------------------------------------------------------
    1          1             0        2.103810    0.724820    0.000000
    2          6             0        1.102805    0.303688    0.000000
    3          1             0        1.258232   -1.895971    0.000000
    4          6             0        0.654158   -0.994696    0.000000
    5          1             0       -1.485705   -1.676629    0.000000
    6          6             0       -0.741145   -0.884149    0.000000
    7          7             0       -1.132430    0.382229    0.000000
    8          1             0       -0.044239    2.090138    0.000000
    9          7             0        0.000000    1.076140    0.000000
 ---------------------------------------------------------------------

 SCF Done:  E(RS-VWN) =  -225.053225047     A.U. after    1 cycles

 The electronic state is 1-A'.
 Alpha  occ. eigenvalues --  -13.95850 -13.89481  -9.83802  -9.81633  -9.79901
 Alpha  occ. eigenvalues --   -0.98941  -0.76253  -0.72922  -0.57310  -0.56353
 Alpha  occ. eigenvalues --   -0.51254  -0.42522  -0.42010  -0.40089  -0.37362
 Alpha  occ. eigenvalues --   -0.26634  -0.25777  -0.24916
 Alpha virt. eigenvalues --   -0.04184  -0.00418   0.00224   0.03780   0.05099
 Alpha virt. eigenvalues --    0.06960   0.12574   0.13601   0.14704   0.15619
 Alpha virt. eigenvalues --    0.22847   0.24575   0.26675   0.28378   0.29355

 Mulliken atomic charges:
              1
     1  H    0.120001
     2  C   -0.097623
     3  H    0.124561
     4  C   -0.198696
     5  H    0.114723
     6  C   -0.125113
     7  N   -0.144907
     8  H    0.169828
     9  N    0.037226
 Sum of Mulliken charges=   0.00000

 Dipole moment (field-independent basis, Debye):
    X=     2.0486    Y=     0.9613    Z=     0.0000  Tot=     2.2630
 Quadrupole moment (field-independent basis, Debye-Ang):
   XX=   -29.8330   YY=   -22.1537   ZZ=   -31.9019
   XY=     2.4418   XZ=     0.0000   YZ=     0.0000

  Exact polarizability:  52.388   1.832  52.764   0.000   0.000  26.899
 Approx polarizability: 103.216   1.735 104.648   0.000   0.000  45.570

                     1                      2                      3
                    A"                     A"                     A"
 Frequencies --   569.2067               634.4827               693.4520
 Red. masses --     1.6061                 2.3587                 2.8082
 Frc consts  --     0.3066                 0.5595                 0.7956
 IR Inten    --    54.2464                 0.5024                14.9552

                     4                      5                      6
                    A"                     A"                     A"
 Frequencies --   724.2553               812.5660               870.8544
 Red. masses --     1.2597                 1.2438                 1.3787
 Frc consts  --     0.3893                 0.4839                 0.6160
 IR Inten    --    89.9503                11.4978                 2.9948

                     7                      8                      9
                    A'                     A'                     A'
 Frequencies --   901.3553               923.4001              1027.5853
 Red. masses --     4.9263                 2.9575                 1.4159
 Frc consts  --     2.3581                 1.4858                 0.8809
 IR Inten    --     9.2013                 3.6504                10.9858

                    10                     11                     12
                    A'                     A'                     A'
 Frequencies --  1033.0783              1129.9634              1193.9921
 Red. masses --     1.4322                 1.5335                 4.4334
 Frc consts  --     0.9006                 1.1536                 3.7239
 IR Inten    --    39.3144                14.8072                 2.3666

                    13                     14                     15
                    A'                     A'                     A'
 Frequencies --  1254.5063              1366.2541              1420.4362
 Red. masses --     1.5139                 3.3603                 5.2135
 Frc consts  --     1.4038                 3.6957                 6.1976
 IR Inten    --     6.3030                 1.2759                10.2282

                    16                     17                     18
                    A'                     A'                     A'
 Frequencies --  1459.3251              1534.7630              3169.1459
 Red. masses --     3.1525                 3.8047                 1.0946
 Frc consts  --     3.9556                 5.2803                 6.4775
 IR Inten    --     3.9725                 5.2786                 0.8349

                    19                     20                     21
                    A'                     A'                     A'
 Frequencies --  3184.5021              3203.3588              3566.7936
 Red. masses --     1.0943                 1.1080                 1.0818
 Frc consts  --     6.5381                 6.6990                 8.1085
 IR Inten    --     0.1431                 0.0461                88.6174

 - Thermochemistry -
 -------------------
 Temperature   298.150 Kelvin.  Pressure   1.00000 Atm.
 Atom  1 has atomic number  1 and mass   1.00783

 Molecular mass:    68.03745 amu.
 Principal axes and moments of inertia in atomic units:
                           1         2         3
     EIGENVALUES --   184.86954 188.36010 373.22964
           X            0.87216   0.48923   0.00000
           Y           -0.48923   0.87216   0.00000
           Z            0.00000   0.00000   1.00000
 This molecule is an asymmetric top.
 Rotational symmetry number  1.
 Rotational temperatures (Kelvin)      0.46851     0.45983     0.23207
 Rotational constants (GHZ):           9.76224     9.58134     4.83547
 Zero-point vibrational energy     183466.9 (Joules/Mol)
                                   43.84965 (Kcal/Mol)
 Warning -- explicit consideration of   1 degrees of freedom as
           vibrations may cause significant error
 Vibrational temperatures:    818.96   912.88   997.72  1042.04  1169.10
          (Kelvin)           1252.96  1296.85  1328.57  1478.46  1486.37
                             1625.76  1717.89  1804.95  1965.73  2043.69
                             2099.64  2208.18  4559.69  4581.78  4608.91
                             5131.81

 Zero-point correction=                           0.069879 (Hartree/Particle)
 Thermal correction to Energy=                    0.073632
 Thermal correction to Enthalpy=                  0.074576
 Thermal correction to Gibbs Free Energy=         0.043636
 Sum of electronic and zero-point Energies=           -224.983346
 Sum of electronic and thermal Energies=              -224.979593
 Sum of electronic and thermal Enthalpies=            -224.978649
 Sum of electronic and thermal Free Energies=         -225.009589

                     E (Thermal)             CV                S
                      KCal/Mol        Cal/Mol-Kelvin    Cal/Mol-Kelvin
 Total                   46.205             13.479             65.118
 Electronic               0.000              0.000              0.000
 Translational            0.889              2.981             38.570
 Rotational               0.889              2.981             24.078
 Vibrational             44.427              7.518              2.470
 Vibration  1             0.925              1.098              0.506

 Optimization completed.
    -- Stationary point found.
 Normal termination of Gaussian 03 at Fri Mar  7 21:04:02 2008.
