 Gaussian 03, Revision D.01,
 Gaussian 03:  AM64L-G03RevD.01 13-Oct-2005

 -----------------------
 #LSDA/6-31+G** opt freq
 -----------------------

 -----------------------------------------------------------
 1hpyraz 1H-Pyrazole casno=288131 method=51 basis=4 config=1
 -----------------------------------------------------------
 Symbolic Z-matrix:
 Charge =  0 Multiplicity = 1

 SCF Done:  E(RS-VWN) =  -224.978778305     A.U. after   12 cycles
 SCF Done:  E(RS-VWN) =  -224.981292731     A.U. after   10 cycles
 SCF Done:  E(RS-VWN) =  -224.981373875     A.U. after   10 cycles
 SCF Done:  E(RS-VWN) =  -224.981388357     A.U. after    9 cycles
 SCF Done:  E(RS-VWN) =  -224.981389319     A.U. after    8 cycles
 Optimization completed.
    -- Stationary point found.
 Normal termination of Gaussian 03 at Thu Mar  6 13:52:46 2008.

 --------------------------------------------------------------------
 #N Geom=AllCheck Guess=Read SCRF=Check GenChk RSVWN/6-31+G(d,p) Freq
 --------------------------------------------------------------------

 1hpyraz 1H-Pyrazole casno=288131 method=51 basis=4 config=1
 -----------------------------------------------------------
 Redundant internal coordinates taken from checkpoint file:
 /gaussian/Gau-1459.chk
 Charge =  0 Multiplicity = 1

                         Standard orientation:
 ---------------------------------------------------------------------
 Center     Atomic     Atomic              Coordinates (Angstroms)
 Number     Number      Type              X           Y           Z
 ---------------------------------------------------------------------
    1          1             0        2.112240    0.729810    0.000000
    2          6             0        1.108510    0.305583    0.000000
    3          1             0        1.263181   -1.904793    0.000000
    4          6             0        0.657738   -0.999652    0.000000
    5          1             0       -1.491918   -1.682281    0.000000
    6          6             0       -0.743933   -0.888260    0.000000
    7          7             0       -1.138645    0.383832    0.000000
    8          1             0       -0.046883    2.098005    0.000000
    9          7             0        0.000000    1.080916    0.000000
 ---------------------------------------------------------------------

 SCF Done:  E(RS-VWN) =  -224.981389319     A.U. after    1 cycles

 The electronic state is 1-A'.
 Alpha  occ. eigenvalues --  -13.98008 -13.91731  -9.85548  -9.83317  -9.81668
 Alpha  occ. eigenvalues --   -0.99095  -0.76558  -0.73146  -0.57564  -0.56533
 Alpha  occ. eigenvalues --   -0.51422  -0.42402  -0.42227  -0.40370  -0.37566
 Alpha  occ. eigenvalues --   -0.26987  -0.25854  -0.25014
 Alpha virt. eigenvalues --   -0.04599  -0.02730  -0.00260   0.00335   0.00999
 Alpha virt. eigenvalues --    0.03182   0.03703   0.03927   0.05488   0.07765
 Alpha virt. eigenvalues --    0.08996   0.09234   0.09262   0.13047   0.13977

 Mulliken atomic charges:
              1
     1  H    0.179257
     2  C   -0.264090
     3  H    0.164193
     4  C    0.042261
     5  H    0.166920
     6  C   -0.240412
     7  N   -0.192613
     8  H    0.336189
     9  N   -0.191702
 Sum of Mulliken charges=   0.00000

 Dipole moment (field-independent basis, Debye):
    X=     2.2412    Y=     0.8950    Z=     0.0000  Tot=     2.4133
 Quadrupole moment (field-independent basis, Debye-Ang):
   XX=   -30.3228   YY=   -22.1977   ZZ=   -32.5687
   XY=     2.6578   XZ=     0.0000   YZ=     0.0000

  Exact polarizability:  55.404   0.821  54.362   0.000   0.000  31.557
 Approx polarizability: 104.208   0.596 103.927   0.000   0.000  48.028

                     1                      2                      3
                    A"                     A"                     A"
 Frequencies --   564.3672               624.2929               684.0071
 Red. masses --     1.7483                 2.3877                 2.6900
 Frc consts  --     0.3281                 0.5483                 0.7415
 IR Inten    --    59.1465                 0.0140                15.9448

                     4                      5                      6
                    A"                     A"                     A"
 Frequencies --   718.2484               802.5147               859.1821
 Red. masses --     1.2450                 1.2305                 1.3372
 Frc consts  --     0.3784                 0.4669                 0.5816
 IR Inten    --   108.6016                13.1590                 4.8989

                     7                      8                      9
                    A'                     A'                     A'
 Frequencies --   892.7104               917.1949              1030.2728
 Red. masses --     5.3014                 3.1082                 1.4068
 Frc consts  --     2.4892                 1.5406                 0.8798
 IR Inten    --     7.7188                 2.7279                12.4702

                    10                     11                     12
                    A'                     A'                     A'
 Frequencies --  1037.6881              1136.4104              1195.3769
 Red. masses --     1.3827                 1.5271                 4.4468
 Frc consts  --     0.8772                 1.1620                 3.7438
 IR Inten    --    39.7309                16.7637                 3.6645

                    13                     14                     15
                    A'                     A'                     A'
 Frequencies --  1259.8596              1374.1819              1433.8507
 Red. masses --     1.4771                 3.4806                 5.4832
 Frc consts  --     1.3814                 3.8725                 6.6419
 IR Inten    --     8.0285                 0.9969                11.6233

                    16                     17                     18
                    A'                     A'                     A'
 Frequencies --  1468.1018              1541.0558              3191.9477
 Red. masses --     3.1034                 3.8424                 1.0935
 Frc consts  --     3.9409                 5.3764                 6.5641
 IR Inten    --     4.8417                 6.0977                 0.8007

                    19                     20                     21
                    A'                     A'                     A'
 Frequencies --  3203.8286              3222.0856              3586.0796
 Red. masses --     1.0946                 1.1082                 1.0821
 Frc consts  --     6.6199                 6.7788                 8.1992
 IR Inten    --     0.1864                 0.0532                91.0646

 - Thermochemistry -
 -------------------
 Temperature   298.150 Kelvin.  Pressure   1.00000 Atm.
 Atom  1 has atomic number  1 and mass   1.00783

 Molecular mass:    68.03745 amu.
 Principal axes and moments of inertia in atomic units:
                           1         2         3
     EIGENVALUES --   186.54687 190.24298 376.78985
           X            0.87695   0.48058   0.00000
           Y           -0.48058   0.87695   0.00000
           Z            0.00000   0.00000   1.00000
 This molecule is an asymmetric top.
 Rotational symmetry number  1.
 Rotational temperatures (Kelvin)      0.46430     0.45528     0.22987
 Rotational constants (GHZ):           9.67447     9.48651     4.78978
 Zero-point vibrational energy     183885.5 (Joules/Mol)
                                   43.94969 (Kcal/Mol)
 Warning -- explicit consideration of   1 degrees of freedom as
           vibrations may cause significant error
 Vibrational temperatures:    812.00   898.22   984.13  1033.40  1154.64
          (Kelvin)           1236.17  1284.41  1319.64  1482.33  1493.00
                             1635.04  1719.88  1812.65  1977.14  2062.99
                             2112.27  2217.23  4592.50  4609.59  4635.86
                             5159.56

 Zero-point correction=                           0.070038 (Hartree/Particle)
 Thermal correction to Energy=                    0.073811
 Thermal correction to Enthalpy=                  0.074755
 Thermal correction to Gibbs Free Energy=         0.043774
 Sum of electronic and zero-point Energies=           -224.911351
 Sum of electronic and thermal Energies=              -224.907578
 Sum of electronic and thermal Enthalpies=            -224.906634
 Sum of electronic and thermal Free Energies=         -224.937616

                     E (Thermal)             CV                S
                      KCal/Mol        Cal/Mol-Kelvin    Cal/Mol-Kelvin
 Total                   46.317             13.566             65.206
 Electronic               0.000              0.000              0.000
 Translational            0.889              2.981             38.570
 Rotational               0.889              2.981             24.107
 Vibrational             44.540              7.604              2.529
 Vibration  1             0.920              1.108              0.515

 Optimization completed.
    -- Stationary point found.
 Normal termination of Gaussian 03 at Thu Mar  6 13:54:52 2008.
