 Gaussian 03, Revision E.01,
 Gaussian 03:  AM64L-G03RevE.01 11-Sep-2007

 ------------------------
 #PBE1PBE/6-31G* opt freq
 ------------------------

 -------------------------------------------------
 1H pyrazole C3H4N2 casno=288131 method=54 basis=1
 -------------------------------------------------
 Symbolic Z-matrix:
 Charge =  0 Multiplicity = 1

 SCF Done:  E(RPBE+HF-PBE) =  -225.874838953     A.U. after   13 cycles
 SCF Done:  E(RPBE+HF-PBE) =  -225.930066980     A.U. after   13 cycles
 SCF Done:  E(RPBE+HF-PBE) =  -225.940320507     A.U. after   13 cycles
 SCF Done:  E(RPBE+HF-PBE) =  -225.940457029     A.U. after   10 cycles
 SCF Done:  E(RPBE+HF-PBE) =  -225.940496023     A.U. after   10 cycles
 SCF Done:  E(RPBE+HF-PBE) =  -225.940498436     A.U. after    8 cycles
 Optimization completed.
    -- Stationary point found.
 Normal termination of Gaussian 03 at Mon Jun 20 07:12:37 2011.

 --------------------------------------------------------------------
 #P Geom=AllCheck Guess=Read SCRF=Check GenChk RPBE1PBE/6-31G(d) Freq
 --------------------------------------------------------------------

 1H pyrazole C3H4N2 casno=288131 method=54 basis=1
 -------------------------------------------------
 Redundant internal coordinates taken from checkpoint file:
 /gaussian/Gau-26778.chk
 Charge =  0 Multiplicity = 1

                         Standard orientation:
 ---------------------------------------------------------------------
 Center     Atomic     Atomic              Coordinates (Angstroms)
 Number     Number      Type              X           Y           Z
 ---------------------------------------------------------------------
    1          1             0        2.101799    0.730252    0.000000
    2          6             0        1.108246    0.304803    0.000000
    3          1             0        1.261615   -1.896696    0.000000
    4          6             0        0.661151   -0.998753    0.000000
    5          1             0       -1.483270   -1.675314    0.000000
    6          6             0       -0.743546   -0.885432    0.000000
    7          7             0       -1.141196    0.381966    0.000000
    8          1             0       -0.046882    2.086013    0.000000
    9          7             0        0.000000    1.079754    0.000000
 ---------------------------------------------------------------------

 SCF Done:  E(RPBE+HF-PBE) =  -225.940498436     A.U. after    1 cycles

 The electronic state is 1-A'.
 Alpha  occ. eigenvalues --  -14.47304 -14.40781 -10.26910 -10.24500 -10.22630
 Alpha  occ. eigenvalues --   -1.07556  -0.83760  -0.79953  -0.62664  -0.60984
 Alpha  occ. eigenvalues --   -0.55852  -0.45410  -0.45087  -0.43757  -0.40599
 Alpha  occ. eigenvalues --   -0.29766  -0.26495  -0.25487
 Alpha virt. eigenvalues --    0.03374   0.08628   0.09330   0.14824   0.17201
 Alpha virt. eigenvalues --    0.18420   0.23704   0.24566   0.30512   0.41194
 Alpha virt. eigenvalues --    0.45326   0.55279   0.56859   0.57725   0.61626

 Mulliken atomic charges:
              1
     1  H    0.193702
     2  C    0.054249
     3  H    0.175544
     4  C   -0.288431
     5  H    0.177361
     6  C    0.015103
     7  N   -0.275732
     8  H    0.371118
     9  N   -0.422915
 Sum of Mulliken charges=   0.00000

 Dipole moment (field-independent basis, Debye):
    X=     2.1180    Y=     0.9263    Z=     0.0000  Tot=     2.3117
 Quadrupole moment (field-independent basis, Debye-Ang):
   XX=   -29.0526   YY=   -21.5291   ZZ=   -31.3665
   XY=     2.4634   XZ=     0.0000   YZ=     0.0000

  Exact polarizability:  45.800   1.816  47.200   0.000   0.000  17.213
 Approx polarizability:  73.070   0.908  74.922   0.000   0.000  24.726

                     1                      2                      3
                    A"                     A"                     A"
 Frequencies --   533.4979               643.7741               704.0174
 Red. masses --     1.7324                 2.6214                 2.8224
 Frc consts  --     0.2905                 0.6401                 0.8242
 IR Inten    --    61.9318                 0.0651                23.4344

                     4                      5                      6
                    A"                     A"                     A"
 Frequencies --   759.9030               843.6670               897.5079
 Red. masses --     1.2112                 1.2095                 1.3105
 Frc consts  --     0.4121                 0.5072                 0.6220
 IR Inten    --    83.1514                11.1799                 4.5480

                     7                      8                      9
                    A'                     A'                     A'
 Frequencies --   923.4628               947.2629              1073.0422
 Red. masses --     5.6575                 3.7424                 1.4212
 Frc consts  --     2.8426                 1.9785                 0.9641
 IR Inten    --     9.0213                 4.9591                11.0426

                    10                     11                     12
                    A'                     A'                     A'
 Frequencies --  1078.0607              1174.3677              1217.7828
 Red. masses --     1.4772                 1.7387                 3.3788
 Frc consts  --     1.0115                 1.4128                 2.9523
 IR Inten    --    34.9520                16.6858                 3.0960

                    13                     14                     15
                    A'                     A'                     A'
 Frequencies --  1309.6722              1420.9026              1467.8110
 Red. masses --     1.6182                 2.9346                 4.3791
 Frc consts  --     1.6353                 3.4909                 5.5588
 IR Inten    --     4.7438                 2.4363                15.4353

                    16                     17                     18
                    A'                     A'                     A'
 Frequencies --  1527.5821              1605.3531              3287.3129
 Red. masses --     2.8273                 3.1632                 1.0928
 Frc consts  --     3.8871                 4.8031                 6.9578
 IR Inten    --     6.0522                 6.6387                 4.2792

                    19                     20                     21
                    A'                     A'                     A'
 Frequencies --  3301.2336              3319.6823              3708.7711
 Red. masses --     1.0942                 1.1074                 1.0818
 Frc consts  --     7.0257                 7.1903                 8.7673
 IR Inten    --     2.2870                 0.5130                74.5302

 - Thermochemistry -
 -------------------
 Temperature   298.150 Kelvin.  Pressure   1.00000 Atm.
 Atom  1 has atomic number  1 and mass   1.00783

 Molecular mass:    68.03745 amu.
 Principal axes and moments of inertia in atomic units:
                           1         2         3
     EIGENVALUES --   185.65863 190.41823 376.07686
           X            0.90522   0.42494   0.00000
           Y           -0.42494   0.90522   0.00000
           Z            0.00000   0.00000   1.00000
 This molecule is an asymmetric top.
 Rotational symmetry number  1.
 Rotational temperatures (Kelvin)      0.46652     0.45486     0.23031
 Rotational constants (GHZ):           9.72075     9.47778     4.79886
 Zero-point vibrational energy     189875.3 (Joules/Mol)
                                   45.38128 (Kcal/Mol)
 Warning -- explicit consideration of   1 degrees of freedom as
           vibrations may cause significant error
 Vibrational temperatures:    767.58   926.25  1012.92  1093.33  1213.85
          (Kelvin)           1291.31  1328.66  1362.90  1543.87  1551.09
                             1689.65  1752.12  1884.32  2044.36  2111.85
                             2197.85  2309.74  4729.70  4749.73  4776.28
                             5336.09

 Zero-point correction=                           0.072320 (Hartree/Particle)
 Thermal correction to Energy=                    0.076028
 Thermal correction to Enthalpy=                  0.076972
 Thermal correction to Gibbs Free Energy=         0.046074
 Sum of electronic and zero-point Energies=           -225.868179
 Sum of electronic and thermal Energies=              -225.864471
 Sum of electronic and thermal Enthalpies=            -225.863527
 Sum of electronic and thermal Free Energies=         -225.894424

                     E (Thermal)             CV                S
                      KCal/Mol        Cal/Mol-Kelvin    Cal/Mol-Kelvin
 Total                   47.708             13.075             65.029
 Electronic               0.000              0.000              0.000
 Translational            0.889              2.981             38.570
 Rotational               0.889              2.981             24.101
 Vibrational             45.931              7.114              2.358
 Vibration  1             0.888              1.176              0.579

 Optimization completed.
    -- Stationary point found.
 Normal termination of Gaussian 03 at Mon Jun 20 07:14:05 2011.
