 Gaussian 03, Revision C.02,
 Gaussian 03:  AM64L-G03RevC.02 12-Jun-2004

 ---------------------------
 #B1B95/aug-cc-pVDZ OPT FREQ
 ---------------------------

 --------------------------------------------------
 1H pyrazole C3H4N2 casno=288131 method=55 basis=17
 --------------------------------------------------
 Symbolic Z-matrix:
 Charge =  0 Multiplicity = 1

 SCF Done:  E(RB+HF-B95) =  -226.140718933     A.U. after   12 cycles
 SCF Done:  E(RB+HF-B95) =  -226.142094810     A.U. after   11 cycles
 SCF Done:  E(RB+HF-B95) =  -226.142144648     A.U. after   10 cycles
 SCF Done:  E(RB+HF-B95) =  -226.142151452     A.U. after    9 cycles
 Optimization completed.
    -- Stationary point found.
 Normal termination of Gaussian 03 at Fri Sep  8 11:43:26 2006.

 ---------------------------------------------------------------------
 #N Geom=AllCheck Guess=Read SCRF=Check GenChk RB1B95/Aug-CC-pVDZ Freq
 ---------------------------------------------------------------------

 1H pyrazole C3H4N2 casno=288131 method=55 basis=17
 --------------------------------------------------
 Redundant internal coordinates taken from checkpoint file:
 /scratch/Gau-26363.chk
 Charge =  0 Multiplicity = 1

                         Standard orientation:
 ---------------------------------------------------------------------
 Center     Atomic     Atomic              Coordinates (Angstroms)
 Number     Number      Type              X           Y           Z
 ---------------------------------------------------------------------
    1          1             0        2.101538    0.731749    0.000000
    2          6             0        1.106764    0.305673    0.000000
    3          1             0        1.262180   -1.896724    0.000000
    4          6             0        0.660017   -0.997971    0.000000
    5          1             0       -1.484971   -1.677378    0.000000
    6          6             0       -0.744052   -0.886567    0.000000
    7          7             0       -1.138425    0.381043    0.000000
    8          1             0       -0.046150    2.085630    0.000000
    9          7             0        0.000000    1.080373    0.000000
 ---------------------------------------------------------------------

 SCF Done:  E(RB+HF-B95) =  -226.142151452     A.U. after    1 cycles

 The electronic state is 1-A'.
 Alpha  occ. eigenvalues --  -14.52875 -14.46981 -10.32190 -10.29944 -10.27960
 Alpha  occ. eigenvalues --   -1.08331  -0.84544  -0.80667  -0.63259  -0.61720
 Alpha  occ. eigenvalues --   -0.56525  -0.46263  -0.46077  -0.44313  -0.41278
 Alpha  occ. eigenvalues --   -0.31018  -0.27647  -0.26606
 Alpha virt. eigenvalues --   -0.00049   0.01833   0.01889   0.02410   0.04107
 Alpha virt. eigenvalues --    0.05833   0.06721   0.07095   0.08169   0.09616
 Alpha virt. eigenvalues --    0.10309   0.10613   0.11030   0.11814   0.12082

 Mulliken atomic charges:
              1
     1  H   -0.442498
     2  C    0.588773
     3  H   -0.454580
     4  C    0.843632
     5  H   -0.383320
     6  C    0.391316
     7  N   -0.425234
     8  H   -0.092882
     9  N   -0.025209
 Sum of Mulliken charges=   0.00000

 Dipole moment (field-independent basis, Debye):
    X=     2.1238    Y=     0.8208    Z=     0.0000  Tot=     2.2769
 Quadrupole moment (field-independent basis, Debye-Ang):
   XX=   -29.9659   YY=   -22.3239   ZZ=   -32.0843
   XY=     2.5895   XZ=     0.0000   YZ=     0.0000

  Exact polarizability:  55.537   1.187  55.689   0.000   0.000  33.461
 Approx polarizability:  82.756   1.330  84.880   0.000   0.000  45.783

                     1                      2                      3
                    A"                     A"                     A"
 Frequencies --   573.4104               640.7105               697.7485
 Red. masses --     1.8903                 2.3744                 2.4491
 Frc consts  --     0.3662                 0.5743                 0.7025
 IR Inten    --    49.5187                 0.0037                18.5242

                     4                      5                      6
                    A"                     A"                     A"
 Frequencies --   755.5935               847.4743               895.3991
 Red. masses --     1.2096                 1.2584                 1.3364
 Frc consts  --     0.4069                 0.5325                 0.6313
 IR Inten    --   101.8735                 4.5436                 8.5646

                     7                      8                      9
                    A'                     A'                     A'
 Frequencies --   913.8106               933.9169              1056.2661
 Red. masses --     5.4059                 3.4683                 1.4036
 Frc consts  --     2.6597                 1.7823                 0.9227
 IR Inten    --     9.0347                 3.5122                 8.2690

                    10                     11                     12
                    A'                     A'                     A'
 Frequencies --  1062.3126              1157.8427              1209.8512
 Red. masses --     1.4696                 1.6442                 3.7175
 Frc consts  --     0.9771                 1.2986                 3.2060
 IR Inten    --    37.3368                17.0367                 2.6663

                    13                     14                     15
                    A'                     A'                     A'
 Frequencies --  1290.6416              1405.1858              1457.9009
 Red. masses --     1.5946                 3.1199                 4.5730
 Frc consts  --     1.5650                 3.6296                 5.7267
 IR Inten    --     5.1990                 1.7174                15.0686

                    16                     17                     18
                    A'                     A'                     A'
 Frequencies --  1510.5823              1586.2248              3273.5269
 Red. masses --     2.9512                 3.2625                 1.0937
 Frc consts  --     3.9677                 4.8364                 6.9051
 IR Inten    --     5.4261                 6.6591                 2.8543

                    19                     20                     21
                    A'                     A'                     A'
 Frequencies --  3290.0525              3309.5523              3700.4538
 Red. masses --     1.0944                 1.1091                 1.0824
 Frc consts  --     6.9799                 7.1574                 8.7324
 IR Inten    --     1.2022                 0.2366                85.4819

 - Thermochemistry -
 -------------------
 Temperature   298.150 Kelvin.  Pressure   1.00000 Atm.
 Atom  1 has atomic number  1 and mass   1.00783

 Molecular mass:    68.03745 amu.
 Principal axes and moments of inertia in atomic units:
                           1         2         3
     EIGENVALUES --   185.87717 189.83148 375.70866
           X            0.90130   0.43319   0.00000
           Y           -0.43319   0.90130   0.00000
           Z            0.00000   0.00000   1.00000
 This molecule is an asymmetric top.
 Rotational symmetry number  1.
 Rotational temperatures (Kelvin)      0.46597     0.45627     0.23053
 Rotational constants (GHZ):           9.70932     9.50707     4.80357
 Zero-point vibrational energy     188821.3 (Joules/Mol)
                                   45.12938 (Kcal/Mol)
 Warning -- explicit consideration of   1 degrees of freedom as
           vibrations may cause significant error
 Vibrational temperatures:    825.01   921.84  1003.90  1087.13  1219.33
          (Kelvin)           1288.28  1314.77  1343.70  1519.73  1528.43
                             1665.88  1740.70  1856.94  2021.75  2097.59
                             2173.39  2282.22  4709.87  4733.65  4761.70
                             5324.12

 Zero-point correction=                           0.071918 (Hartree/Particle)
 Thermal correction to Energy=                    0.075617
 Thermal correction to Enthalpy=                  0.076562
 Thermal correction to Gibbs Free Energy=         0.045683
 Sum of electronic and zero-point Energies=           -226.070233
 Sum of electronic and thermal Energies=              -226.066534
 Sum of electronic and thermal Enthalpies=            -226.065590
 Sum of electronic and thermal Free Energies=         -226.096469

                     E (Thermal)             CV                S
                      KCal/Mol        Cal/Mol-Kelvin    Cal/Mol-Kelvin
 Total                   47.451             13.113             64.990
 Electronic               0.000              0.000              0.000
 Translational            0.889              2.981             38.570
 Rotational               0.889              2.981             24.098
 Vibrational             45.673              7.152              2.322
 Vibration  1             0.930              1.089              0.498

 Normal termination of Gaussian 03 at Fri Sep  8 12:00:26 2006.
