 Gaussian 03, Revision C.02,
 Gaussian 03:  AM64L-G03RevC.02 12-Jun-2004

 ----------------------
 #B1B95/6-31G* OPT FREQ
 ----------------------

 -------------------------------------------------
 1H pyrazole C3H4N2 casno=288131 method=55 basis=1
 -------------------------------------------------
 Symbolic Z-matrix:
 Charge =  0 Multiplicity = 1

 SCF Done:  E(RB+HF-B95) =  -226.104916388     A.U. after   15 cycles
 SCF Done:  E(RB+HF-B95) =  -226.106014288     A.U. after   13 cycles
 SCF Done:  E(RB+HF-B95) =  -226.106059133     A.U. after    9 cycles
 SCF Done:  E(RB+HF-B95) =  -226.106063158     A.U. after    9 cycles
 Optimization completed.
    -- Stationary point found.
 Normal termination of Gaussian 03 at Fri Mar 10 07:09:09 2006.

 ------------------------------------------------------------------
 #N Geom=AllCheck Guess=Read SCRF=Check GenChk RB1B95/6-31G(d) Freq
 ------------------------------------------------------------------

 1H pyrazole C3H4N2 casno=288131 method=55 basis=1
 -------------------------------------------------
 Redundant internal coordinates taken from checkpoint file:
 /scratch/Gau-2911.chk
 Charge =  0 Multiplicity = 1

                         Standard orientation:
 ---------------------------------------------------------------------
 Center     Atomic     Atomic              Coordinates (Angstroms)
 Number     Number      Type              X           Y           Z
 ---------------------------------------------------------------------
    1          1             0        2.097581    0.729503    0.000000
    2          6             0        1.106518    0.303990    0.000000
    3          1             0        1.259380   -1.892833    0.000000
    4          6             0        0.660325   -0.996591    0.000000
    5          1             0       -1.478524   -1.672727    0.000000
    6          6             0       -0.741364   -0.883420    0.000000
    7          7             0       -1.140439    0.380720    0.000000
    8          1             0       -0.048237    2.082655    0.000000
    9          7             0        0.000000    1.077783    0.000000
 ---------------------------------------------------------------------

 SCF Done:  E(RB+HF-B95) =  -226.106063158     A.U. after    1 cycles

 The electronic state is 1-A'.
 Alpha  occ. eigenvalues --  -14.52620 -14.46198 -10.31710 -10.29280 -10.27359
 Alpha  occ. eigenvalues --   -1.07267  -0.83564  -0.79711  -0.62553  -0.60813
 Alpha  occ. eigenvalues --   -0.55832  -0.45278  -0.45216  -0.43670  -0.40500
 Alpha  occ. eigenvalues --   -0.29847  -0.26513  -0.25494
 Alpha virt. eigenvalues --    0.04127   0.09391   0.10247   0.15685   0.18046
 Alpha virt. eigenvalues --    0.19296   0.24556   0.25439   0.31317   0.41957
 Alpha virt. eigenvalues --    0.46157   0.55719   0.57068   0.58124   0.62076

 Mulliken atomic charges:
              1
     1  H    0.181822
     2  C    0.068704
     3  H    0.163508
     4  C   -0.271901
     5  H    0.165601
     6  C    0.024469
     7  N   -0.273481
     8  H    0.363723
     9  N   -0.422446
 Sum of Mulliken charges=   0.00000

 Dipole moment (field-independent basis, Debye):
    X=     2.1046    Y=     0.9282    Z=     0.0000  Tot=     2.3002
 Quadrupole moment (field-independent basis, Debye-Ang):
   XX=   -29.0139   YY=   -21.5566   ZZ=   -31.1998
   XY=     2.4193   XZ=     0.0000   YZ=     0.0000

  Exact polarizability:  45.635   1.832  47.138   0.000   0.000  17.129
 Approx polarizability:  71.383   0.895  73.303   0.000   0.000  24.434

                     1                      2                      3
                    A"                     A"                     A"
 Frequencies --   539.5214               642.2442               702.1715
 Red. masses --     1.7900                 2.6079                 2.7262
 Frc consts  --     0.3070                 0.6338                 0.7919
 IR Inten    --    59.6365                 0.0008                24.4971

                     4                      5                      6
                    A"                     A"                     A"
 Frequencies --   762.0579               846.8837               900.8484
 Red. masses --     1.2067                 1.2112                 1.3066
 Frc consts  --     0.4129                 0.5118                 0.6247
 IR Inten    --    79.7588                 9.9109                 4.4227

                     7                      8                      9
                    A'                     A'                     A'
 Frequencies --   918.2114               941.0791              1072.8806
 Red. masses --     5.6811                 3.8401                 1.4387
 Frc consts  --     2.8221                 2.0038                 0.9757
 IR Inten    --     9.0540                 4.9619                15.5118

                    10                     11                     12
                    A'                     A'                     A'
 Frequencies --  1078.0994              1174.6217              1217.6171
 Red. masses --     1.4558                 1.7431                 3.2865
 Frc consts  --     0.9969                 1.4170                 2.8708
 IR Inten    --    29.0941                16.5163                 3.0724

                    13                     14                     15
                    A'                     A'                     A'
 Frequencies --  1309.8337              1421.4868              1471.4168
 Red. masses --     1.6132                 2.9322                 4.2836
 Frc consts  --     1.6307                 3.4909                 5.4642
 IR Inten    --     4.7267                 2.8077                14.5870

                    16                     17                     18
                    A'                     A'                     A'
 Frequencies --  1529.1375              1608.6279              3290.7000
 Red. masses --     2.8614                 3.1998                 1.0928
 Frc consts  --     3.9421                 4.8785                 6.9723
 IR Inten    --     6.3991                 7.0530                 5.1160

                    19                     20                     21
                    A'                     A'                     A'
 Frequencies --  3305.7420              3323.7254              3707.3228
 Red. masses --     1.0941                 1.1076                 1.0818
 Frc consts  --     7.0442                 7.2093                 8.7605
 IR Inten    --     2.9171                 0.7272                72.2998

 - Thermochemistry -
 -------------------
 Temperature   298.150 Kelvin.  Pressure   1.00000 Atm.
 Atom  1 has atomic number  1 and mass   1.00783

 Molecular mass:    68.03745 amu.
 Principal axes and moments of inertia in atomic units:
                           1         2         3
     EIGENVALUES --   184.88777 189.86289 374.75067
           X            0.90796   0.41906   0.00000
           Y           -0.41906   0.90796   0.00000
           Z            0.00000   0.00000   1.00000
 This molecule is an asymmetric top.
 Rotational symmetry number  1.
 Rotational temperatures (Kelvin)      0.46847     0.45619     0.23112
 Rotational constants (GHZ):           9.76128     9.50550     4.81585
 Zero-point vibrational energy     189992.3 (Joules/Mol)
                                   45.40925 (Kcal/Mol)
 Warning -- explicit consideration of   1 degrees of freedom as
           vibrations may cause significant error
 Vibrational temperatures:    776.25   924.05  1010.27  1096.43  1218.48
          (Kelvin)           1296.12  1321.10  1354.00  1543.63  1551.14
                             1690.02  1751.88  1884.56  2045.20  2117.04
                             2200.09  2314.45  4734.58  4756.22  4782.09
                             5334.00

 Zero-point correction=                           0.072364 (Hartree/Particle)
 Thermal correction to Energy=                    0.076069
 Thermal correction to Enthalpy=                  0.077013
 Thermal correction to Gibbs Free Energy=         0.046126
 Sum of electronic and zero-point Energies=           -226.033699
 Sum of electronic and thermal Energies=              -226.029994
 Sum of electronic and thermal Enthalpies=            -226.029050
 Sum of electronic and thermal Free Energies=         -226.059938

                     E (Thermal)             CV                S
                      KCal/Mol        Cal/Mol-Kelvin    Cal/Mol-Kelvin
 Total                   47.734             13.068             65.009
 Electronic               0.000              0.000              0.000
 Translational            0.889              2.981             38.570
 Rotational               0.889              2.981             24.090
 Vibrational             45.957              7.106              2.349
 Vibration  1             0.895              1.163              0.566

 Optimization completed.
    -- Stationary point found.
 Normal termination of Gaussian 03 at Fri Mar 10 07:12:21 2006.
