 Gaussian 09, Revision B.01,
 Gaussian 09:  EM64L-G09RevB.01 12-Aug-2010

 ------------------------
 #B2PLYP/cc-pVTZ opt freq
 ------------------------

 -------------------------------------------------------------------
 1hpyraz 1H-Pyrazole casno=288131 state=1 config=1 method=56 basis=6
 -------------------------------------------------------------------
 Symbolic Z-matrix:
 Charge =  0 Multiplicity = 1

 SCF Done:  E(RB2PLYP) =  -225.805223220     A.U. after   13 cycles
 E2(B2PLYP) =    -0.2921614363D+00 E(B2PLYP) =    -0.22609738465611D+03
 SCF Done:  E(RB2PLYP) =  -225.805979176     A.U. after   10 cycles
 E2(B2PLYP) =    -0.2915873187D+00 E(B2PLYP) =    -0.22609756649489D+03
 SCF Done:  E(RB2PLYP) =  -225.805977140     A.U. after    8 cycles
 E2(B2PLYP) =    -0.2915917880D+00 E(B2PLYP) =    -0.22609756892846D+03
 Optimization completed.
    -- Stationary point found.
 Normal termination of Gaussian 09 at Wed Mar  6 12:19:37 2013.

 ----------------------------------------------------------------------
 #N Geom=AllCheck Guess=TCheck SCRF=Check GenChk RB2PLYP(FC)/CC-pVTZ Fr
 eq
 ----------------------------------------------------------------------

 1hpyraz 1H-Pyrazole casno=288131 state=1 config=1 method=56 basis=6
 -------------------------------------------------------------------
 Redundant internal coordinates taken from checkpoint file:
 /tmp/rdj3/g09-12728/Gau-13359.chk
 Charge =  0 Multiplicity = 1

                         Standard orientation:
 ---------------------------------------------------------------------
 Center     Atomic      Atomic             Coordinates (Angstroms)
 Number     Number       Type             X           Y           Z
 ---------------------------------------------------------------------
      1          1           0        2.097413    0.728492    0.000000
      2          6           0        1.108724    0.307023    0.000000
      3          1           0        1.262351   -1.887877    0.000000
      4          6           0        0.662863   -0.996848    0.000000
      5          1           0       -1.473467   -1.679608    0.000000
      6          6           0       -0.741691   -0.890987    0.000000
      7          7           0       -1.145370    0.377959    0.000000
      8          1           0       -0.048084    2.086602    0.000000
      9          7           0        0.000000    1.084507    0.000000
 ---------------------------------------------------------------------

 SCF Done:  E(RB2PLYP) =  -225.805977140     A.U. after    1 cycles
 E2(B2PLYP) =    -0.2915917914D+00 E(B2PLYP) =    -0.22609756893186D+03
 E2(B2PLYP) =    -0.2915917914D+00 E(B2PLYP) =    -0.22609756893186D+03

 The electronic state is 1-A'.
 Alpha  occ. eigenvalues --  -14.91392 -14.85649 -10.65706 -10.63307 -10.60891
 Alpha  occ. eigenvalues --   -1.18333  -0.93431  -0.89370  -0.70243  -0.68209
 Alpha  occ. eigenvalues --   -0.63007  -0.51557  -0.51105  -0.49878  -0.46916
 Alpha  occ. eigenvalues --   -0.36315  -0.30662  -0.29283
 Alpha virt. eigenvalues --    0.07067   0.07678   0.11201   0.12214   0.12468
 Alpha virt. eigenvalues --    0.14240   0.23092   0.24334   0.25913   0.26154
 Alpha virt. eigenvalues --    0.34192   0.36400   0.38667   0.39839   0.42150

 Mulliken atomic charges:
              1
     1  H    0.142972
     2  C   -0.111400
     3  H    0.146398
     4  C   -0.206516
     5  H    0.136891
     6  C   -0.109040
     7  N   -0.185874
     8  H    0.181986
     9  N    0.004583
 Sum of Mulliken atomic charges =   0.00000

 Dipole moment (field-independent basis, Debye):
    X=              2.1698    Y=              0.8331    Z=              0.0000  Tot=              2.3243
 Quadrupole moment (field-independent basis, Debye-Ang):
   XX=            -29.7840   YY=            -22.2013   ZZ=            -32.0745
   XY=              2.6285   XZ=              0.0000   YZ=              0.0000

  Exact polarizability:  50.971   1.784  51.830   0.000   0.000  26.502
 Approx polarizability:  64.234   1.152  66.683   0.000   0.000  34.763

                     1                      2                      3
                    A"                     A"                     A"
 Frequencies --   529.2080               641.3954               695.7221
 Red. masses --     1.6605                 2.5496                 2.8959
 Frc consts  --     0.2740                 0.6180                 0.8259
 IR Inten    --    51.7581                 0.3091                20.4896

                     4                      5                      6
                    A"                     A"                     A"
 Frequencies --   760.1324               849.2106               902.9098
 Red. masses --     1.2137                 1.2274                 1.3294
 Frc consts  --     0.4132                 0.5215                 0.6385
 IR Inten    --    87.4821                 9.6427                 4.6550

                     7                      8                      9
                    A'                     A'                     A'
 Frequencies --   922.9691               940.5185              1048.2895
 Red. masses --     5.4986                 3.9852                 1.7870
 Frc consts  --     2.7598                 2.0770                 1.1570
 IR Inten    --     9.3576                 5.3818                34.7252

                    10                     11                     12
                    A'                     A'                     A'
 Frequencies --  1060.9805              1148.9007              1178.8517
 Red. masses --     1.4455                 1.8465                 2.7951
 Frc consts  --     0.9587                 1.4360                 2.2886
 IR Inten    --     7.4623                17.5000                 0.0634

                    13                     14                     15
                    A'                     A'                     A'
 Frequencies --  1280.8628              1383.6708              1431.8377
 Red. masses --     1.9327                 2.2656                 3.6197
 Frc consts  --     1.8682                 2.5556                 4.3723
 IR Inten    --     1.9109                 4.2662                12.6426

                    16                     17                     18
                    A'                     A'                     A'
 Frequencies --  1483.8467              1562.7575              3263.9267
 Red. masses --     2.6224                 2.8304                 1.0931
 Frc consts  --     3.4020                 4.0727                 6.8609
 IR Inten    --     5.7105                 5.5206                 2.9175

                    19                     20                     21
                    A'                     A'                     A'
 Frequencies --  3276.2040              3294.7732              3685.8478
 Red. masses --     1.0939                 1.1066                 1.0821
 Frc consts  --     6.9180                 7.0779                 8.6612
 IR Inten    --     1.3629                 0.4904                87.8018

 - Thermochemistry -
 -------------------
 Temperature   298.150 Kelvin.  Pressure   1.00000 Atm.
 Atom     1 has atomic number  1 and mass   1.00783

 Molecular mass:    68.03745 amu.
 Principal axes and moments of inertia in atomic units:
                           1         2         3
     Eigenvalues --   186.45977 190.56643 377.02621
           X            0.91474   0.40404   0.00000
           Y           -0.40404   0.91474   0.00000
           Z            0.00000   0.00000   1.00000
 This molecule is an asymmetric top.
 Rotational symmetry number  1.
 Rotational temperatures (Kelvin)      0.46452     0.45451     0.22973
 Rotational constants (GHZ):           9.67898     9.47040     4.78678
 Zero-point vibrational energy     187471.7 (Joules/Mol)
                                   44.80680 (Kcal/Mol)
 Warning -- explicit consideration of   1 degrees of freedom as
           vibrations may cause significant error
 Vibrational temperatures:    761.41   922.82  1000.99  1093.66  1221.82
          (Kelvin)           1299.08  1327.94  1353.19  1508.25  1526.51
                             1653.01  1696.10  1842.87  1990.79  2060.09
                             2134.92  2248.46  4696.06  4713.72  4740.44
                             5303.11

 Zero-point correction=                           0.071404 (Hartree/Particle)
 Thermal correction to Energy=                    0.075132
 Thermal correction to Enthalpy=                  0.076077
 Thermal correction to Gibbs Free Energy=         0.045149
 Sum of electronic and zero-point Energies=           -226.026165
 Sum of electronic and thermal Energies=              -226.022437
 Sum of electronic and thermal Enthalpies=            -226.021492
 Sum of electronic and thermal Free Energies=         -226.052420

                     E (Thermal)             CV                S
                      KCal/Mol        Cal/Mol-Kelvin    Cal/Mol-Kelvin
 Total                   47.146             13.240             65.092
 Electronic               0.000              0.000              0.000
 Translational            0.889              2.981             38.570
 Rotational               0.889              2.981             24.108
 Vibrational             45.369              7.279              2.414
 Vibration     1          0.884              1.185              0.589

 Optimization completed.
    -- Stationary point found.
 Normal termination of Gaussian 09 at Wed Mar  6 12:43:50 2013.
