 Gaussian 09, Revision A.02,
 Gaussian 09:  AM64L-G09RevA.02 11-Jun-2009

 ---------------------------
 #HSEh1PBE/6-31+G** opt freq
 ---------------------------

 -------------------------------------------------
 1H pyrazole C3H4N2 casno=288131 method=57 basis=4
 -------------------------------------------------
 Symbolic Z-matrix:
 Charge =  0 Multiplicity = 1

 SCF Done:  E(RHSEH1PBE) =  -225.912073955     A.U. after   11 cycles
 SCF Done:  E(RHSEH1PBE) =  -225.966884241     A.U. after   11 cycles
 SCF Done:  E(RHSEH1PBE) =  -225.976878318     A.U. after   11 cycles
 SCF Done:  E(RHSEH1PBE) =  -225.977012796     A.U. after   10 cycles
 SCF Done:  E(RHSEH1PBE) =  -225.977053370     A.U. after   10 cycles
 SCF Done:  E(RHSEH1PBE) =  -225.977055716     A.U. after    9 cycles
 Optimization completed.
    -- Stationary point found.
 Normal termination of Gaussian 09 at Sat Jul 31 15:20:01 2010.

 ----------------------------------------------------------------------
 #N Geom=AllCheck Guess=TCheck SCRF=Check GenChk RHSEH1PBE/6-31+G(d,p)
 Freq
 ----------------------------------------------------------------------

 1H pyrazole C3H4N2 casno=288131 method=57 basis=4
 -------------------------------------------------
 Redundant internal coordinates taken from checkpoint file:
 /gaussian/Gau-32619.chk
 Charge =  0 Multiplicity = 1

                         Standard orientation:
 ---------------------------------------------------------------------
 Center     Atomic      Atomic             Coordinates (Angstroms)
 Number     Number       Type             X           Y           Z
 ---------------------------------------------------------------------
      1          1           0        2.102337    0.728692    0.000000
      2          6           0        1.108414    0.305511    0.000000
      3          1           0        1.261236   -1.896787    0.000000
      4          6           0        0.660995   -0.999383    0.000000
      5          1           0       -1.485031   -1.676043    0.000000
      6          6           0       -0.745152   -0.887484    0.000000
      7          7           0       -1.139761    0.381485    0.000000
      8          1           0       -0.045755    2.087564    0.000000
      9          7           0        0.000000    1.082045    0.000000
 ---------------------------------------------------------------------

 SCF Done:  E(RHSEH1PBE) =  -225.977055716     A.U. after    1 cycles

 The electronic state is 1-A'.
 Alpha  occ. eigenvalues --  -14.46867 -14.40709 -10.26470 -10.24121 -10.22247
 Alpha  occ. eigenvalues --   -1.07007  -0.83180  -0.79336  -0.61924  -0.60392
 Alpha  occ. eigenvalues --   -0.55129  -0.44836  -0.44557  -0.43063  -0.40011
 Alpha  occ. eigenvalues --   -0.29425  -0.26142  -0.25133
 Alpha virt. eigenvalues --   -0.00200  -0.00083   0.02463   0.03063   0.04229
 Alpha virt. eigenvalues --    0.05290   0.06003   0.06115   0.08276   0.09736
 Alpha virt. eigenvalues --    0.11362   0.11651   0.11821   0.15474   0.16672

 Mulliken atomic charges:
              1
     1  H    0.175549
     2  C   -0.240046
     3  H    0.164049
     4  C    0.027132
     5  H    0.162231
     6  C   -0.234670
     7  N   -0.180348
     8  H    0.334039
     9  N   -0.207935
 Sum of Mulliken atomic charges =   0.00000

 Dipole moment (field-independent basis, Debye):
    X=              2.2490    Y=              0.8599    Z=              0.0000  Tot=              2.4078
 Quadrupole moment (field-independent basis, Debye-Ang):
   XX=            -30.0684   YY=            -22.1044   ZZ=            -32.4451
   XY=              2.7050   XZ=              0.0000   YZ=              0.0000

  Exact polarizability:  53.026   0.873  52.700   0.000   0.000  30.710
 Approx polarizability:  85.493   0.626  86.742   0.000   0.000  42.861

                     1                      2                      3
                    A"                     A"                     A"
 Frequencies --   553.7143               638.6029               696.7733
 Red. masses --     1.7786                 2.4522                 2.7064
 Frc consts  --     0.3213                 0.5892                 0.7742
 IR Inten    --    60.6248                 0.0054                21.4233

                     4                      5                      6
                    A"                     A"                     A"
 Frequencies --   758.3260               848.4732               900.6581
 Red. masses --     1.2112                 1.2344                 1.3270
 Frc consts  --     0.4104                 0.5236                 0.6342
 IR Inten    --   110.7777                 9.3304                 6.1060

                     7                      8                      9
                    A'                     A'                     A'
 Frequencies --   921.0627               944.3629              1065.7103
 Red. masses --     5.6499                 3.6922                 1.4148
 Frc consts  --     2.8240                 1.9400                 0.9468
 IR Inten    --     8.6022                 3.3897                10.2586

                    10                     11                     12
                    A'                     A'                     A'
 Frequencies --  1070.9078              1164.6669              1210.2073
 Red. masses --     1.4855                 1.7501                 3.4159
 Frc consts  --     1.0038                 1.3987                 2.9476
 IR Inten    --    40.0259                19.8627                 3.2474

                    13                     14                     15
                    A'                     A'                     A'
 Frequencies --  1300.3308              1412.1716              1457.4094
 Red. masses --     1.6187                 2.9245                 4.3953
 Frc consts  --     1.6126                 3.4362                 5.5005
 IR Inten    --     4.4601                 2.6260                15.8115

                    16                     17                     18
                    A'                     A'                     A'
 Frequencies --  1511.9475              1590.6108              3283.3280
 Red. masses --     2.8076                 3.1456                 1.0921
 Frc consts  --     3.7815                 4.6890                 6.9366
 IR Inten    --     6.7772                 6.7894                 2.2498

                    19                     20                     21
                    A'                     A'                     A'
 Frequencies --  3295.0316              3312.3283              3717.6504
 Red. masses --     1.0949                 1.1078                 1.0821
 Frc consts  --     7.0041                 7.1609                 8.8115
 IR Inten    --     1.3589                 0.1016                91.7205

 - Thermochemistry -
 -------------------
 Temperature   298.150 Kelvin.  Pressure   1.00000 Atm.
 Atom     1 has atomic number  1 and mass   1.00783

 Molecular mass:    68.03745 amu.
 Principal axes and moments of inertia in atomic units:
                           1         2         3
     Eigenvalues --   186.21753 190.31120 376.52873
           X            0.89924   0.43745   0.00000
           Y           -0.43745   0.89924   0.00000
           Z            0.00000   0.00000   1.00000
 This molecule is an asymmetric top.
 Rotational symmetry number  1.
 Rotational temperatures (Kelvin)      0.46512     0.45512     0.23003
 Rotational constants (GHZ):           9.69158     9.48311     4.79310
 Zero-point vibrational energy     189334.6 (Joules/Mol)
                                   45.25206 (Kcal/Mol)
 Warning -- explicit consideration of   1 degrees of freedom as
           vibrations may cause significant error
 Vibrational temperatures:    796.67   918.81  1002.50  1091.06  1220.76
          (Kelvin)           1295.84  1325.20  1358.73  1533.32  1540.80
                             1675.69  1741.22  1870.88  2031.80  2096.88
                             2175.35  2288.53  4723.97  4740.81  4765.70
                             5348.86

 Zero-point correction=                           0.072114 (Hartree/Particle)
 Thermal correction to Energy=                    0.075818
 Thermal correction to Enthalpy=                  0.076762
 Thermal correction to Gibbs Free Energy=         0.045871
 Sum of electronic and zero-point Energies=           -225.904942
 Sum of electronic and thermal Energies=              -225.901238
 Sum of electronic and thermal Enthalpies=            -225.900294
 Sum of electronic and thermal Free Energies=         -225.931185

                     E (Thermal)             CV                S
                      KCal/Mol        Cal/Mol-Kelvin    Cal/Mol-Kelvin
 Total                   47.576             13.096             65.016
 Electronic               0.000              0.000              0.000
 Translational            0.889              2.981             38.570
 Rotational               0.889              2.981             24.105
 Vibrational             45.799              7.134              2.341
 Vibration     1          0.909              1.132              0.537

 Optimization completed.
    -- Stationary point found.
 Normal termination of Gaussian 09 at Sat Jul 31 15:23:25 2010.
