 Gaussian 09, Revision A.02,
 Gaussian 09:  AM64L-G09RevA.02 11-Jun-2009

 ----------------------
 #M062X/6-31G* opt freq
 ----------------------

 -------------------------------------------------
 1H pyrazole C3H4N2 casno=288131 method=58 basis=1
 -------------------------------------------------
 Symbolic Z-matrix:
 Charge =  0 Multiplicity = 1

 SCF Done:  E(RM062X) =  -226.036164473     A.U. after   15 cycles
 SCF Done:  E(RM062X) =  -226.091768518     A.U. after   14 cycles
 SCF Done:  E(RM062X) =  -226.101971870     A.U. after   15 cycles
 SCF Done:  E(RM062X) =  -226.102112039     A.U. after   10 cycles
 SCF Done:  E(RM062X) =  -226.102152411     A.U. after   10 cycles
 SCF Done:  E(RM062X) =  -226.102154560     A.U. after    8 cycles
 Optimization completed.
    -- Stationary point found.
 Normal termination of Gaussian 09 at Sat Jul 31 12:58:59 2010.

 --------------------------------------------------------------------
 #N Geom=AllCheck Guess=TCheck SCRF=Check GenChk RM062X/6-31G(d) Freq
 --------------------------------------------------------------------

 1H pyrazole C3H4N2 casno=288131 method=58 basis=1
 -------------------------------------------------
 Redundant internal coordinates taken from checkpoint file:
 /gaussian/Gau-16225.chk
 Charge =  0 Multiplicity = 1

                         Standard orientation:
 ---------------------------------------------------------------------
 Center     Atomic      Atomic             Coordinates (Angstroms)
 Number     Number       Type             X           Y           Z
 ---------------------------------------------------------------------
      1          1           0        2.100214    0.730897    0.000000
      2          6           0        1.108485    0.303921    0.000000
      3          1           0        1.261611   -1.895545    0.000000
      4          6           0        0.662155   -0.998574    0.000000
      5          1           0       -1.484336   -1.674384    0.000000
      6          6           0       -0.745092   -0.885379    0.000000
      7          7           0       -1.140306    0.380513    0.000000
      8          1           0       -0.048640    2.088170    0.000000
      9          7           0        0.000000    1.081066    0.000000
 ---------------------------------------------------------------------

 SCF Done:  E(RM062X) =  -226.102154560     A.U. after    1 cycles

 The electronic state is 1-A'.
 Alpha  occ. eigenvalues --  -14.83397 -14.77201 -10.58231 -10.55746 -10.53640
 Alpha  occ. eigenvalues --   -1.15896  -0.91272  -0.87162  -0.68918  -0.67122
 Alpha  occ. eigenvalues --   -0.61949  -0.51174  -0.50622  -0.48915  -0.45676
 Alpha  occ. eigenvalues --   -0.35463  -0.30996  -0.29850
 Alpha virt. eigenvalues --    0.07173   0.12427   0.12705   0.18460   0.20855
 Alpha virt. eigenvalues --    0.22045   0.27408   0.28059   0.33711   0.44517
 Alpha virt. eigenvalues --    0.49654   0.58782   0.60164   0.61251   0.65355

 Mulliken atomic charges:
              1
     1  H    0.191620
     2  C    0.056604
     3  H    0.172382
     4  C   -0.271626
     5  H    0.173573
     6  C    0.018978
     7  N   -0.279667
     8  H    0.373096
     9  N   -0.434960
 Sum of Mulliken atomic charges =   0.00000

 Dipole moment (field-independent basis, Debye):
    X=              2.1229    Y=              0.9362    Z=              0.0000  Tot=              2.3202
 Quadrupole moment (field-independent basis, Debye-Ang):
   XX=            -29.1966   YY=            -21.6850   ZZ=            -31.5178
   XY=              2.4720   XZ=              0.0000   YZ=              0.0000

  Exact polarizability:  45.406   1.899  47.379   0.000   0.000  17.060
 Approx polarizability:  60.407   0.909  62.922   0.000   0.000  22.485

                     1                      2                      3
                    A"                     A"                     A"
 Frequencies --   542.8508               643.6331               706.1602
 Red. masses --     1.6596                 2.4320                 2.9105
 Frc consts  --     0.2881                 0.5936                 0.8551
 IR Inten    --    70.7752                 0.1819                23.6695

                     4                      5                      6
                    A"                     A"                     A"
 Frequencies --   769.4149               856.3994               907.7090
 Red. masses --     1.2420                 1.2174                 1.3427
 Frc consts  --     0.4332                 0.5260                 0.6518
 IR Inten    --    74.3181                14.9811                 0.3470

                     7                      8                      9
                    A'                     A'                     A'
 Frequencies --   924.7207               948.5587              1072.6466
 Red. masses --     5.6689                 3.7619                 1.4150
 Frc consts  --     2.8561                 1.9943                 0.9593
 IR Inten    --     9.3329                 4.8831                 9.6699

                    10                     11                     12
                    A'                     A'                     A'
 Frequencies --  1079.4126              1171.6771              1221.1925
 Red. masses --     1.4702                 1.7107                 3.3268
 Frc consts  --     1.0093                 1.3837                 2.9231
 IR Inten    --    33.7604                17.5538                 3.7156

                    13                     14                     15
                    A'                     A'                     A'
 Frequencies --  1308.0151              1427.5561              1468.2089
 Red. masses --     1.5614                 3.0368                 4.3409
 Frc consts  --     1.5739                 3.6463                 5.5132
 IR Inten    --     4.9015                 2.4546                17.3969

                    16                     17                     18
                    A'                     A'                     A'
 Frequencies --  1529.8861              1616.4499              3274.2710
 Red. masses --     2.8896                 3.4020                 1.0957
 Frc consts  --     3.9848                 5.2372                 6.9210
 IR Inten    --     7.2653                 7.5638                 3.5920

                    19                     20                     21
                    A'                     A'                     A'
 Frequencies --  3287.3495              3327.4875              3690.3538
 Red. masses --     1.0966                 1.1037                 1.0823
 Frc consts  --     6.9820                 7.1998                 8.6839
 IR Inten    --     0.3236                 0.1498                89.1685

 - Thermochemistry -
 -------------------
 Temperature   298.150 Kelvin.  Pressure   1.00000 Atm.
 Atom     1 has atomic number  1 and mass   1.00783

 Molecular mass:    68.03745 amu.
 Principal axes and moments of inertia in atomic units:
                           1         2         3
     Eigenvalues --   185.77002 190.42573 376.19576
           X            0.90987   0.41490   0.00000
           Y           -0.41490   0.90987   0.00000
           Z            0.00000   0.00000   1.00000
 This molecule is an asymmetric top.
 Rotational symmetry number  1.
 Rotational temperatures (Kelvin)      0.46624     0.45484     0.23024
 Rotational constants (GHZ):           9.71492     9.47740     4.79735
 Zero-point vibrational energy     190050.4 (Joules/Mol)
                                   45.42315 (Kcal/Mol)
 Warning -- explicit consideration of   1 degrees of freedom as
           vibrations may cause significant error
 Vibrational temperatures:    781.04   926.04  1016.01  1107.02  1232.17
          (Kelvin)           1305.99  1330.47  1364.76  1543.30  1553.03
                             1685.78  1757.02  1881.94  2053.93  2112.42
                             2201.16  2325.71  4710.94  4729.76  4787.51
                             5309.59

 Zero-point correction=                           0.072386 (Hartree/Particle)
 Thermal correction to Energy=                    0.076078
 Thermal correction to Enthalpy=                  0.077022
 Thermal correction to Gibbs Free Energy=         0.046147
 Sum of electronic and zero-point Energies=           -226.029768
 Sum of electronic and thermal Energies=              -226.026076
 Sum of electronic and thermal Enthalpies=            -226.025132
 Sum of electronic and thermal Free Energies=         -226.056007

                     E (Thermal)             CV                S
                      KCal/Mol        Cal/Mol-Kelvin    Cal/Mol-Kelvin
 Total                   47.740             12.993             64.982
 Electronic               0.000              0.000              0.000
 Translational            0.889              2.981             38.570
 Rotational               0.889              2.981             24.102
 Vibrational             45.962              7.031              2.310
 Vibration     1          0.898              1.155              0.559

 Optimization completed.
    -- Stationary point found.
 Normal termination of Gaussian 09 at Sat Jul 31 13:00:53 2010.
