 Gaussian 09, Revision B.01,
 Gaussian 09:  EM64L-G09RevB.01 12-Aug-2010

 ---------------------------
 #B2PLYP=FULL/3-21G opt freq
 ---------------------------

 -------------------------------------------------------------------
 1hpyraz 1H-Pyrazole casno=288131 state=1 config=1 method=59 basis=2
 -------------------------------------------------------------------
 Symbolic Z-matrix:
 Charge =  0 Multiplicity = 1

 SCF Done:  E(RB2PLYP) =  -224.446356885     A.U. after   14 cycles
 E2(B2PLYP) =    -0.1609633078D+00 E(B2PLYP) =    -0.22460732019307D+03
 SCF Done:  E(RB2PLYP) =  -224.460166427     A.U. after   15 cycles
 E2(B2PLYP) =    -0.1683169797D+00 E(B2PLYP) =    -0.22462848340689D+03
 SCF Done:  E(RB2PLYP) =  -224.460029859     A.U. after   13 cycles
 E2(B2PLYP) =    -0.1700203622D+00 E(B2PLYP) =    -0.22463005022092D+03
 SCF Done:  E(RB2PLYP) =  -224.460093576     A.U. after   12 cycles
 E2(B2PLYP) =    -0.1703631554D+00 E(B2PLYP) =    -0.22463045673097D+03
 SCF Done:  E(RB2PLYP) =  -224.460363950     A.U. after    9 cycles
 E2(B2PLYP) =    -0.1701657110D+00 E(B2PLYP) =    -0.22463052966150D+03
 SCF Done:  E(RB2PLYP) =  -224.460494806     A.U. after   10 cycles
 E2(B2PLYP) =    -0.1700485456D+00 E(B2PLYP) =    -0.22463054335121D+03
 Optimization completed.
    -- Stationary point found.
 Normal termination of Gaussian 09 at Fri Jan 13 13:38:42 2012.

 ----------------------------------------------------------------------
 #N Geom=AllCheck Guess=TCheck SCRF=Check GenChk RB2PLYP-Full/3-21G Fre
 q
 ----------------------------------------------------------------------

 1hpyraz 1H-Pyrazole casno=288131 state=1 config=1 method=59 basis=2
 -------------------------------------------------------------------
 Redundant internal coordinates taken from checkpoint file:
 /tmp/rdj3/g09-1624/Gau-2515.chk
 Charge =  0 Multiplicity = 1

                         Standard orientation:
 ---------------------------------------------------------------------
 Center     Atomic      Atomic             Coordinates (Angstroms)
 Number     Number       Type             X           Y           Z
 ---------------------------------------------------------------------
      1          1           0        2.117137    0.729493    0.000000
      2          6           0        1.122477    0.320912    0.000000
      3          1           0        1.290858   -1.878565    0.000000
      4          6           0        0.682558   -0.993033    0.000000
      5          1           0       -1.440824   -1.729634    0.000000
      6          6           0       -0.735186   -0.918284    0.000000
      7          7           0       -1.188816    0.358067    0.000000
      8          1           0       -0.064551    2.119985    0.000000
      9          7           0        0.000000    1.113526    0.000000
 ---------------------------------------------------------------------

 SCF Done:  E(RB2PLYP) =  -224.460494806     A.U. after    1 cycles
 E2(B2PLYP) =    -0.1700485456D+00 E(B2PLYP) =    -0.22463054335119D+03
 E2(B2PLYP) =    -0.1700485456D+00 E(B2PLYP) =    -0.22463054335119D+03

 The electronic state is 1-A'.
 Alpha  occ. eigenvalues --  -14.84443 -14.79315 -10.61275 -10.58633 -10.56003
 Alpha  occ. eigenvalues --   -1.16590  -0.93504  -0.88647  -0.70055  -0.67117
 Alpha  occ. eigenvalues --   -0.62847  -0.51379  -0.49395  -0.49248  -0.47242
 Alpha  occ. eigenvalues --   -0.34618  -0.30437  -0.28404
 Alpha virt. eigenvalues --    0.07969   0.14772   0.16438   0.21058   0.24069
 Alpha virt. eigenvalues --    0.25409   0.29475   0.31971   0.40072   0.52525
 Alpha virt. eigenvalues --    0.54446   0.78524   0.82892   0.83602   0.85013

 Mulliken atomic charges:
              1
     1  H    0.240613
     2  C    0.145468
     3  H    0.207892
     4  C   -0.383647
     5  H    0.229558
     6  C    0.073711
     7  N   -0.309772
     8  H    0.363725
     9  N   -0.567547
 Sum of Mulliken atomic charges =   0.00000

 Dipole moment (field-independent basis, Debye):
    X=              2.2928    Y=              0.8095    Z=              0.0000  Tot=              2.4315
 Quadrupole moment (field-independent basis, Debye-Ang):
   XX=            -29.4644   YY=            -21.6304   ZZ=            -32.2844
   XY=              2.7459   XZ=              0.0000   YZ=              0.0000

  Exact polarizability:  42.523   2.305  45.002   0.000   0.000  11.964
 Approx polarizability:  57.089   0.537  59.853   0.000   0.000  12.724

                     1                      2                      3
                    A"                     A"                     A"
 Frequencies --   574.7627               655.0305               681.1246
 Red. masses --     2.0211                 1.9645                 2.5749
 Frc consts  --     0.3934                 0.4966                 0.7038
 IR Inten    --    88.8450                 3.3704                37.8323

                     4                      5                      6
                    A"                     A"                     A'
 Frequencies --   780.8123               875.2656               921.9345
 Red. masses --     1.2267                 1.2397                 5.5003
 Frc consts  --     0.4407                 0.5596                 2.7545
 IR Inten    --    87.5206                13.7958                22.2462

                     7                      8                      9
                    A"                     A'                     A'
 Frequencies --   927.1446               954.1795               976.8447
 Red. masses --     1.3844                 5.1486                 3.3984
 Frc consts  --     0.7011                 2.7618                 1.9107
 IR Inten    --     1.4800                 4.6148                 5.4774

                    10                     11                     12
                    A'                     A'                     A'
 Frequencies --  1070.0365              1123.6008              1154.8393
 Red. masses --     1.7098                 2.3974                 1.6276
 Frc consts  --     1.1534                 1.7832                 1.2789
 IR Inten    --     6.4105                17.7669                 5.7108

                    13                     14                     15
                    A'                     A'                     A'
 Frequencies --  1230.2938              1358.5779              1401.1074
 Red. masses --     3.2994                 1.7553                 1.8741
 Frc consts  --     2.9424                 1.9088                 2.1677
 IR Inten    --     1.8779                 3.4338                 8.8609

                    16                     17                     18
                    A'                     A'                     A'
 Frequencies --  1440.4968              1534.8865              3302.9498
 Red. masses --     2.2198                 2.4300                 1.0911
 Frc consts  --     2.7139                 3.3730                 7.0134
 IR Inten    --    11.0863                14.7888                 1.8830

                    19                     20                     21
                    A'                     A'                     A'
 Frequencies --  3308.7634              3332.2553              3640.2235
 Red. masses --     1.0950                 1.1054                 1.0829
 Frc consts  --     7.0634                 7.2319                 8.4549
 IR Inten    --     2.3169                 0.1488                92.3012

 - Thermochemistry -
 -------------------
 Temperature   298.150 Kelvin.  Pressure   1.00000 Atm.
 Atom     1 has atomic number  1 and mass   1.00783

 Molecular mass:    68.03745 amu.
 Principal axes and moments of inertia in atomic units:
                           1         2         3
     Eigenvalues --   192.67538 197.29368 389.96906
           X            0.99188   0.12720   0.00000
           Y           -0.12720   0.99188   0.00000
           Z            0.00000   0.00000   1.00000
 This molecule is an asymmetric top.
 Rotational symmetry number  1.
 Rotational temperatures (Kelvin)      0.44953     0.43901     0.22210
 Rotational constants (GHZ):           9.36675     9.14749     4.62791
 Zero-point vibrational energy     186887.4 (Joules/Mol)
                                   44.66716 (Kcal/Mol)
 Warning -- explicit consideration of   1 degrees of freedom as
           vibrations may cause significant error
 Vibrational temperatures:    826.95   942.44   979.99  1123.41  1259.31
          (Kelvin)           1326.46  1333.95  1372.85  1405.46  1539.54
                             1616.61  1661.55  1770.12  1954.69  2015.88
                             2072.55  2208.36  4752.20  4760.57  4794.37
                             5237.46

 Zero-point correction=                           0.071182 (Hartree/Particle)
 Thermal correction to Energy=                    0.074880
 Thermal correction to Enthalpy=                  0.075824
 Thermal correction to Gibbs Free Energy=         0.044897
 Sum of electronic and zero-point Energies=           -224.559362
 Sum of electronic and thermal Energies=              -224.555664
 Sum of electronic and thermal Enthalpies=            -224.554720
 Sum of electronic and thermal Free Energies=         -224.585647

                     E (Thermal)             CV                S
                      KCal/Mol        Cal/Mol-Kelvin    Cal/Mol-Kelvin
 Total                   46.988             13.192             65.092
 Electronic               0.000              0.000              0.000
 Translational            0.889              2.981             38.570
 Rotational               0.889              2.981             24.209
 Vibrational             45.210              7.230              2.312
 Vibration     1          0.931              1.086              0.495

 Optimization completed.
    -- Stationary point found.
 Normal termination of Gaussian 09 at Fri Jan 13 13:39:02 2012.
