 Gaussian 09, Revision B.01,
 Gaussian 09:  EM64L-G09RevB.01 12-Aug-2010

 ----------------------------
 #B2PLYP=FULL/6-31G* opt freq
 ----------------------------

 -------------------------------------------------------------------
 1hpyraz 1H-Pyrazole casno=288131 state=1 config=1 method=59 basis=1
 -------------------------------------------------------------------
 Symbolic Z-matrix:
 Charge =  0 Multiplicity = 1

 SCF Done:  E(RB2PLYP) =  -225.714632683     A.U. after   14 cycles
 E2(B2PLYP) =    -0.2384536191D+00 E(B2PLYP) =    -0.22595308630248D+03
 SCF Done:  E(RB2PLYP) =  -225.722887607     A.U. after   13 cycles
 E2(B2PLYP) =    -0.2432379324D+00 E(B2PLYP) =    -0.22596612553910D+03
 SCF Done:  E(RB2PLYP) =  -225.722901485     A.U. after   11 cycles
 E2(B2PLYP) =    -0.2436448895D+00 E(B2PLYP) =    -0.22596654637461D+03
 SCF Done:  E(RB2PLYP) =  -225.722858858     A.U. after   10 cycles
 E2(B2PLYP) =    -0.2437439807D+00 E(B2PLYP) =    -0.22596660283892D+03
 SCF Done:  E(RB2PLYP) =  -225.722920719     A.U. after    9 cycles
 E2(B2PLYP) =    -0.2436919414D+00 E(B2PLYP) =    -0.22596661266010D+03
 Optimization completed.
    -- Stationary point found.
 Normal termination of Gaussian 09 at Tue Jan 10 13:17:30 2012.

 ----------------------------------------------------------------------
 #N Geom=AllCheck Guess=TCheck SCRF=Check GenChk RB2PLYP-Full/6-31G(d)
 Freq
 ----------------------------------------------------------------------

 1hpyraz 1H-Pyrazole casno=288131 state=1 config=1 method=59 basis=1
 -------------------------------------------------------------------
 Redundant internal coordinates taken from checkpoint file:
 /tmp/rdj3/g09-2194/Gau-2986.chk
 Charge =  0 Multiplicity = 1

                         Standard orientation:
 ---------------------------------------------------------------------
 Center     Atomic      Atomic             Coordinates (Angstroms)
 Number     Number       Type             X           Y           Z
 ---------------------------------------------------------------------
      1          1           0        2.104894    0.733386    0.000000
      2          6           0        1.113263    0.307291    0.000000
      3          1           0        1.266565   -1.894523    0.000000
      4          6           0        0.664792   -0.999140    0.000000
      5          1           0       -1.477786   -1.683959    0.000000
      6          6           0       -0.742072   -0.892643    0.000000
      7          7           0       -1.151182    0.379596    0.000000
      8          1           0       -0.051293    2.092971    0.000000
      9          7           0        0.000000    1.085986    0.000000
 ---------------------------------------------------------------------

 SCF Done:  E(RB2PLYP) =  -225.722920719     A.U. after    1 cycles
 E2(B2PLYP) =    -0.2436919418D+00 E(B2PLYP) =    -0.22596661266052D+03
 E2(B2PLYP) =    -0.2436919418D+00 E(B2PLYP) =    -0.22596661266052D+03

 The electronic state is 1-A'.
 Alpha  occ. eigenvalues --  -14.92348 -14.86331 -10.66306 -10.63776 -10.61446
 Alpha  occ. eigenvalues --   -1.17480  -0.92735  -0.88699  -0.69676  -0.67478
 Alpha  occ. eigenvalues --   -0.62357  -0.50873  -0.50097  -0.49302  -0.46305
 Alpha  occ. eigenvalues --   -0.35535  -0.29768  -0.28402
 Alpha virt. eigenvalues --    0.08586   0.13852   0.14627   0.19391   0.21727
 Alpha virt. eigenvalues --    0.22920   0.29966   0.30483   0.35884   0.47340
 Alpha virt. eigenvalues --    0.52461   0.62248   0.63932   0.64862   0.69048

 Mulliken atomic charges:
              1
     1  H    0.187658
     2  C    0.071966
     3  H    0.168184
     4  C   -0.275848
     5  H    0.169121
     6  C    0.038422
     7  N   -0.289917
     8  H    0.372371
     9  N   -0.441957
 Sum of Mulliken atomic charges =   0.00000

 Dipole moment (field-independent basis, Debye):
    X=              2.2265    Y=              0.8339    Z=              0.0000  Tot=              2.3775
 Quadrupole moment (field-independent basis, Debye-Ang):
   XX=            -29.2793   YY=            -21.7409   ZZ=            -31.5757
   XY=              2.5948   XZ=              0.0000   YZ=              0.0000

  Exact polarizability:  45.847   1.885  47.322   0.000   0.000  16.912
 Approx polarizability:  59.045   0.769  61.224   0.000   0.000  21.938

                     1                      2                      3
                    A"                     A"                     A"
 Frequencies --   500.9720               635.6560               694.9855
 Red. masses --     1.7454                 2.8909                 2.8908
 Frc consts  --     0.2581                 0.6882                 0.8227
 IR Inten    --    60.1736                 0.0322                24.6062

                     4                      5                      6
                    A"                     A"                     A"
 Frequencies --   751.1855               825.8089               876.7134
 Red. masses --     1.2114                 1.1795                 1.2622
 Frc consts  --     0.4027                 0.4739                 0.5716
 IR Inten    --    74.7168                12.7161                 7.1702

                     7                      8                      9
                    A'                     A'                     A'
 Frequencies --   924.6524               943.5780              1063.5635
 Red. masses --     5.6538                 4.1883                 1.7543
 Frc consts  --     2.8481                 2.1971                 1.1692
 IR Inten    --     9.0803                 5.5230                33.5620

                    10                     11                     12
                    A'                     A'                     A'
 Frequencies --  1078.0755              1166.2949              1193.3545
 Red. masses --     1.4196                 1.9035                 2.6419
 Frc consts  --     0.9721                 1.5255                 2.2167
 IR Inten    --     8.2709                16.6108                 0.5895

                    13                     14                     15
                    A'                     A'                     A'
 Frequencies --  1299.0828              1401.6036              1456.6421
 Red. masses --     1.8434                 2.3818                 3.7431
 Frc consts  --     1.8329                 2.7569                 4.6793
 IR Inten    --     2.1512                 4.5055                13.1921

                    16                     17                     18
                    A'                     A'                     A'
 Frequencies --  1509.1930              1586.9543              3290.4671
 Red. masses --     2.6362                 2.8588                 1.0920
 Frc consts  --     3.5377                 4.2420                 6.9661
 IR Inten    --     7.0982                 6.7419                 4.0719

                    19                     20                     21
                    A'                     A'                     A'
 Frequencies --  3302.2010              3318.9887              3688.2486
 Red. masses --     1.0942                 1.1067                 1.0821
 Frc consts  --     7.0301                 7.1831                 8.6724
 IR Inten    --     3.1349                 0.8091                74.5350

 - Thermochemistry -
 -------------------
 Temperature   298.150 Kelvin.  Pressure   1.00000 Atm.
 Atom     1 has atomic number  1 and mass   1.00783

 Molecular mass:    68.03745 amu.
 Principal axes and moments of inertia in atomic units:
                           1         2         3
     Eigenvalues --   187.23434 192.04001 379.27435
           X            0.92288   0.38509   0.00000
           Y           -0.38509   0.92288   0.00000
           Z            0.00000   0.00000   1.00000
 This molecule is an asymmetric top.
 Rotational symmetry number  1.
 Rotational temperatures (Kelvin)      0.46260     0.45102     0.22837
 Rotational constants (GHZ):           9.63894     9.39774     4.75841
 Zero-point vibrational energy     188461.0 (Joules/Mol)
                                   45.04326 (Kcal/Mol)
 Warning -- explicit consideration of   1 degrees of freedom as
           vibrations may cause significant error
 Vibrational temperatures:    720.79   914.57   999.93  1080.79  1188.15
          (Kelvin)           1261.39  1330.37  1357.60  1530.23  1551.11
                             1678.04  1716.97  1869.09  2016.59  2095.78
                             2171.39  2283.27  4734.24  4751.12  4775.28
                             5306.56

 Zero-point correction=                           0.071781 (Hartree/Particle)
 Thermal correction to Energy=                    0.075537
 Thermal correction to Enthalpy=                  0.076481
 Thermal correction to Gibbs Free Energy=         0.045502
 Sum of electronic and zero-point Energies=           -225.894832
 Sum of electronic and thermal Energies=              -225.891076
 Sum of electronic and thermal Enthalpies=            -225.890132
 Sum of electronic and thermal Free Energies=         -225.921111

                     E (Thermal)             CV                S
                      KCal/Mol        Cal/Mol-Kelvin    Cal/Mol-Kelvin
 Total                   47.400             13.310             65.201
 Electronic               0.000              0.000              0.000
 Translational            0.889              2.981             38.570
 Rotational               0.889              2.981             24.126
 Vibrational             45.623              7.348              2.505
 Vibration     1          0.856              1.248              0.656

 Normal termination of Gaussian 09 at Tue Jan 10 13:18:39 2012.
