 Gaussian 09, Revision B.01,
 Gaussian 09:  EM64L-G09RevB.01 12-Aug-2010

 ------------------------------
 #B2PLYP=FULL/6-31+G** opt freq
 ------------------------------

 -------------------------------------------------------------------
 1hpyraz 1H-Pyrazole casno=288131 state=1 config=1 method=59 basis=4
 -------------------------------------------------------------------
 Symbolic Z-matrix:
 Charge =  0 Multiplicity = 1

 SCF Done:  E(RB2PLYP) =  -225.733770408     A.U. after   13 cycles
 E2(B2PLYP) =    -0.2489414387D+00 E(B2PLYP) =    -0.22598271184693D+03
 SCF Done:  E(RB2PLYP) =  -225.742144827     A.U. after   12 cycles
 E2(B2PLYP) =    -0.2535625569D+00 E(B2PLYP) =    -0.22599570738436D+03
 SCF Done:  E(RB2PLYP) =  -225.742120573     A.U. after   11 cycles
 E2(B2PLYP) =    -0.2540196761D+00 E(B2PLYP) =    -0.22599614024917D+03
 SCF Done:  E(RB2PLYP) =  -225.742073957     A.U. after   10 cycles
 E2(B2PLYP) =    -0.2541367436D+00 E(B2PLYP) =    -0.22599621070075D+03
 SCF Done:  E(RB2PLYP) =  -225.742153005     A.U. after    9 cycles
 E2(B2PLYP) =    -0.2540666411D+00 E(B2PLYP) =    -0.22599621964595D+03
 Optimization completed.
    -- Stationary point found.
 Normal termination of Gaussian 09 at Thu Jan 26 15:43:45 2012.

 ----------------------------------------------------------------------
 #N Geom=AllCheck Guess=TCheck SCRF=Check GenChk RB2PLYP-Full/6-31+G(d,
 p) Freq
 ----------------------------------------------------------------------

 1hpyraz 1H-Pyrazole casno=288131 state=1 config=1 method=59 basis=4
 -------------------------------------------------------------------
 Redundant internal coordinates taken from checkpoint file:
 /tmp/rdj3/g09-31574/Gau-32372.chk
 Charge =  0 Multiplicity = 1

                         Standard orientation:
 ---------------------------------------------------------------------
 Center     Atomic      Atomic             Coordinates (Angstroms)
 Number     Number       Type             X           Y           Z
 ---------------------------------------------------------------------
      1          1           0        2.104538    0.732301    0.000000
      2          6           0        1.113725    0.308264    0.000000
      3          1           0        1.265923   -1.894219    0.000000
      4          6           0        0.664903   -1.000212    0.000000
      5          1           0       -1.479486   -1.683992    0.000000
      6          6           0       -0.743878   -0.895228    0.000000
      7          7           0       -1.149921    0.379364    0.000000
      8          1           0       -0.050027    2.093978    0.000000
      9          7           0        0.000000    1.088492    0.000000
 ---------------------------------------------------------------------

 SCF Done:  E(RB2PLYP) =  -225.742153005     A.U. after    1 cycles
 E2(B2PLYP) =    -0.2540666403D+00 E(B2PLYP) =    -0.22599621964524D+03
 E2(B2PLYP) =    -0.2540666403D+00 E(B2PLYP) =    -0.22599621964524D+03

 The electronic state is 1-A'.
 Alpha  occ. eigenvalues --  -14.93524 -14.87844 -10.67431 -10.64958 -10.62630
 Alpha  occ. eigenvalues --   -1.18670  -0.93867  -0.89778  -0.70629  -0.68539
 Alpha  occ. eigenvalues --   -0.63281  -0.51899  -0.51116  -0.50211  -0.47288
 Alpha  occ. eigenvalues --   -0.36652  -0.30872  -0.29507
 Alpha virt. eigenvalues --    0.02823   0.05109   0.05573   0.05813   0.07967
 Alpha virt. eigenvalues --    0.08427   0.08854   0.10234   0.11908   0.13073
 Alpha virt. eigenvalues --    0.14133   0.14915   0.16057   0.18333   0.19756

 Mulliken atomic charges:
              1
     1  H    0.166442
     2  C   -0.161888
     3  H    0.154868
     4  C   -0.026463
     5  H    0.151020
     6  C   -0.162389
     7  N   -0.208922
     8  H    0.331221
     9  N   -0.243890
 Sum of Mulliken atomic charges =   0.00000

 Dipole moment (field-independent basis, Debye):
    X=              2.3505    Y=              0.7790    Z=              0.0000  Tot=              2.4762
 Quadrupole moment (field-independent basis, Debye-Ang):
   XX=            -30.2774   YY=            -22.2839   ZZ=            -32.8089
   XY=              2.8519   XZ=              0.0000   YZ=              0.0000

  Exact polarizability:  53.673   0.863  53.162   0.000   0.000  31.373
 Approx polarizability:  64.391   0.514  66.078   0.000   0.000  36.458

                     1                      2                      3
                    A"                     A"                     A"
 Frequencies --   511.2279               625.6817               683.4059
 Red. masses --     1.8131                 2.7806                 2.7423
 Frc consts  --     0.2792                 0.6413                 0.7546
 IR Inten    --    57.3501                 0.0006                22.7813

                     4                      5                      6
                    A"                     A"                     A"
 Frequencies --   747.5045               826.3125               873.0296
 Red. masses --     1.2104                 1.1976                 1.2596
 Frc consts  --     0.3985                 0.4818                 0.5656
 IR Inten    --   107.3900                10.4778                10.7559

                     7                      8                      9
                    A'                     A'                     A'
 Frequencies --   920.8029               939.4403              1057.7178
 Red. masses --     5.6530                 4.1936                 1.7502
 Frc consts  --     2.8240                 2.1806                 1.1537
 IR Inten    --     8.4331                 3.5496                38.3709

                    10                     11                     12
                    A'                     A'                     A'
 Frequencies --  1070.2438              1156.9314              1185.6625
 Red. masses --     1.4187                 1.9105                 2.7087
 Frc consts  --     0.9574                 1.5066                 2.2436
 IR Inten    --     8.5444                19.9764                 0.7183

                    13                     14                     15
                    A'                     A'                     A'
 Frequencies --  1291.4374              1394.3273              1447.8732
 Red. masses --     1.8602                 2.3683                 3.7109
 Frc consts  --     1.8280                 2.7128                 4.5834
 IR Inten    --     1.8835                 5.1387                13.3729

                    16                     17                     18
                    A'                     A'                     A'
 Frequencies --  1496.5820              1573.3282              3294.6436
 Red. masses --     2.6120                 2.8010                 1.0916
 Frc consts  --     3.4469                 4.0852                 6.9810
 IR Inten    --     8.0434                 6.4785                 1.9807

                    19                     20                     21
                    A'                     A'                     A'
 Frequencies --  3304.5567              3321.1860              3709.9754
 Red. masses --     1.0949                 1.1069                 1.0823
 Frc consts  --     7.0444                 7.1937                 8.7771
 IR Inten    --     1.6800                 0.2705                92.9325

 - Thermochemistry -
 -------------------
 Temperature   298.150 Kelvin.  Pressure   1.00000 Atm.
 Atom     1 has atomic number  1 and mass   1.00783

 Molecular mass:    68.03745 amu.
 Principal axes and moments of inertia in atomic units:
                           1         2         3
     Eigenvalues --   187.89423 191.99216 379.88639
           X            0.91889   0.39452   0.00000
           Y           -0.39452   0.91889   0.00000
           Z            0.00000   0.00000   1.00000
 This molecule is an asymmetric top.
 Rotational symmetry number  1.
 Rotational temperatures (Kelvin)      0.46097     0.45113     0.22800
 Rotational constants (GHZ):           9.60509     9.40008     4.75074
 Zero-point vibrational energy     188004.3 (Joules/Mol)
                                   44.93411 (Kcal/Mol)
 Warning -- explicit consideration of   1 degrees of freedom as
           vibrations may cause significant error
 Vibrational temperatures:    735.54   900.22   983.27  1075.49  1188.88
          (Kelvin)           1256.09  1324.83  1351.64  1521.82  1539.84
                             1664.56  1705.90  1858.09  2006.12  2083.16
                             2153.24  2263.67  4740.25  4754.51  4778.44
                             5337.82

 Zero-point correction=                           0.071607 (Hartree/Particle)
 Thermal correction to Energy=                    0.075373
 Thermal correction to Enthalpy=                  0.076317
 Thermal correction to Gibbs Free Energy=         0.045324
 Sum of electronic and zero-point Energies=           -225.924613
 Sum of electronic and thermal Energies=              -225.920847
 Sum of electronic and thermal Enthalpies=            -225.919903
 Sum of electronic and thermal Free Energies=         -225.950896

                     E (Thermal)             CV                S
                      KCal/Mol        Cal/Mol-Kelvin    Cal/Mol-Kelvin
 Total                   47.297             13.391             65.230
 Electronic               0.000              0.000              0.000
 Translational            0.889              2.981             38.570
 Rotational               0.889              2.981             24.131
 Vibrational             45.520              7.430              2.529
 Vibration     1          0.866              1.225              0.631

 Normal termination of Gaussian 09 at Thu Jan 26 15:48:01 2012.
