 Gaussian 98, Revision A.4,
 Gaussian 98:  IBM-RS6000-G98RevA.4 11-Sep-1998

 ----------------------
 #QCISD/6-31G* OPT freq
 ----------------------

 -------------------------------
 1H pyrazole C3H4N2 casno=288131
 -------------------------------
 Symbolic Z-matrix:
 Charge =  0 Multiplicity = 1

 SCF Done:  E(RHF) =  -224.790494916     A.U. after   15 cycles
 Optimization completed.
    -- Stationary point found.
 Normal termination of Gaussian 98.

 ------------------------------------------------------
 #N Geom=AllCheck Guess=TCheck RQCISD(FC)/6-31G(d) Freq
 ------------------------------------------------------

 1H pyrazole C3H4N2 casno=288131
 -------------------------------
 Redundant internal coordinates taken from checkpointfile:
 /wrk/rdj3/Gau-12012.chk
 Charge =  0 Multiplicity = 1

                         Standard orientation:
 ---------------------------------------------------------------------
 Center     Atomic     Atomic              Coordinates (Angstroms)
 Number     Number      Type              X           Y           Z
 ---------------------------------------------------------------------
    1          1             0        2.107838    0.734021    0.000000
    2          6             0        1.112707    0.307301    0.000000
    3          1             0        1.270355   -1.897589    0.000000
    4          6             0        0.668022   -0.998687    0.000000
    5          1             0       -1.479743   -1.687696    0.000000
    6          6             0       -0.744000   -0.891720    0.000000
    7          7             0       -1.152404    0.377314    0.000000
    8          1             0       -0.051990    2.096229    0.000000
    9          7             0        0.000000    1.087496    0.000000
 ---------------------------------------------------------------------

 SCF Done:  E(RHF) =  -224.790494916     A.U. after    1 cycles
 SCF Done:  E(RHF) =  -224.790476538     A.U. after    7 cycles
 SCF Done:  E(RHF) =  -224.790512080     A.U. after    7 cycles
 SCF Done:  E(RHF) =  -224.790487170     A.U. after    7 cycles
 SCF Done:  E(RHF) =  -224.790502256     A.U. after    7 cycles
 SCF Done:  E(RHF) =  -224.790494860     A.U. after    7 cycles
 SCF Done:  E(RHF) =  -224.790460928     A.U. after    9 cycles
 SCF Done:  E(RHF) =  -224.790525746     A.U. after    9 cycles
 SCF Done:  E(RHF) =  -224.790492949     A.U. after    9 cycles
 SCF Done:  E(RHF) =  -224.790497335     A.U. after    8 cycles
 SCF Done:  E(RHF) =  -224.790492193     A.U. after    8 cycles
 SCF Done:  E(RHF) =  -224.790462045     A.U. after    7 cycles
 SCF Done:  E(RHF) =  -224.790526031     A.U. after    7 cycles
 SCF Done:  E(RHF) =  -224.790494878     A.U. after    7 cycles
 SCF Done:  E(RHF) =  -224.790488110     A.U. after    9 cycles
 SCF Done:  E(RHF) =  -224.790499328     A.U. after    9 cycles
 SCF Done:  E(RHF) =  -224.790483927     A.U. after    9 cycles
 SCF Done:  E(RHF) =  -224.790502132     A.U. after    9 cycles
 SCF Done:  E(RHF) =  -224.790494717     A.U. after    7 cycles

  The electronic state is 1-A'.
 Alpha  occ. eigenvalues --  -15.64107 -15.58673 -11.27851 -11.25102 -11.22131
 Alpha  occ. eigenvalues --   -1.36561  -1.09089  -1.04509  -0.81853  -0.79332
 Alpha  occ. eigenvalues --   -0.73694  -0.60387  -0.59798  -0.58677  -0.55787
 Alpha  occ. eigenvalues --   -0.45336  -0.35812  -0.33986
 Alpha virt. eigenvalues --    0.17536   0.22466   0.24403   0.27929   0.30239
 Alpha virt. eigenvalues --    0.31373   0.40410   0.40824   0.45547   0.57970
 Alpha virt. eigenvalues --    0.65135   0.74146   0.77416   0.78129   0.82694

                     1                      2                      3
                    A"                     A"                     A"
 Frequencies --   484.8928               626.6143               692.4070
 Red. masses --     1.7747                 3.0215                 2.8464
 Frc consts  --     0.2459                 0.6990                 0.8040
 IR Inten    --    68.2076                 0.2267                22.8864
 Raman Activ --     0.0000                 0.0000                 0.0000

                     4                      5                      6
                    A"                     A"                     A"
 Frequencies --   754.5882               817.4399               868.3002
 Red. masses --     1.2056                 1.1785                 1.2408
 Frc consts  --     0.4045                 0.4640                 0.5512
 IR Inten    --    88.9892                 2.5473                13.9169
 Raman Activ --     0.0000                 0.0000                 0.0000

                     7                      8                      9
                    A'                     A'                     A'
 Frequencies --   929.9876               948.9315              1073.0538
 Red. masses --     5.7183                 4.2042                 1.7353
 Frc consts  --     2.9139                 2.2305                 1.1773
 IR Inten    --     9.1096                 5.3634                35.1675
 Raman Activ --     0.0000                 0.0000                 0.0000

                    10                     11                     12
                    A'                     A'                     A'
 Frequencies --  1084.4497              1171.3141              1205.7293
 Red. masses --     1.4267                 1.9469                 2.3929
 Frc consts  --     0.9885                 1.5737                 2.0497
 IR Inten    --     5.6221                19.8539                 0.7033
 Raman Activ --     0.0000                 0.0000                 0.0000

                    13                     14                     15
                    A'                     A'                     A'
 Frequencies --  1313.9389              1423.6670              1468.5724
 Red. masses --     1.6624                 2.5942                 3.8659
 Frc consts  --     1.6910                 3.0979                 4.9124
 IR Inten    --     2.5414                 4.0517                19.6053
 Raman Activ --     0.0000                 0.0000                 0.0000

                    16                     17                     18
                    A'                     A'                     A'
 Frequencies --  1531.2851              1614.7023              3273.9651
 Red. masses --     2.6578                 3.2083                 1.0930
 Frc consts  --     3.6719                 4.9285                 6.9030
 IR Inten    --    10.7955                 7.5184                 4.7439
 Raman Activ --     0.0000                 0.0000                 0.0000

                    19                     20                     21
                    A'                     A'                     A'
 Frequencies --  3286.3134              3304.9140              3695.4735
 Red. masses --     1.0949                 1.1084                 1.0821
 Frc consts  --     6.9672                 7.1330                 8.7069
 IR Inten    --     3.2537                 0.7952                82.7687
 Raman Activ --     0.0000                 0.0000                 0.0000

 - Thermochemistry -
 -------------------
 Temperature   298.150 Kelvin.  Pressure   1.00000 Atm.
 Atom  1 has atomic number  1 and mass   1.00783

 Molecular mass:    68.03745 amu.
 Principal axes and moments of inertia in atomic units:
                           1         2         3
     EIGENVALUES --   187.40908 192.46787 379.87695
           X            0.93397   0.35735   0.00000
           Y           -0.35735   0.93397   0.00000
           Z            0.00000   0.00000   1.00000
 THIS MOLECULE IS AN ASYMMETRIC TOP.
 ROTATIONAL SYMMETRY NUMBER  1.
 ROTATIONAL TEMPERATURES (KELVIN)      0.46216     0.45001     0.22800
 ROTATIONAL CONSTANTS (GHZ)            9.62996     9.37684     4.75086
 Zero-point vibrational energy     188833.8 (Joules/Mol)
                                   45.13236 (Kcal/Mol)
 WARNING-- EXPLICIT CONSIDERATION OF   1 DEGREES OF FREEDOM AS
           VIBRATIONS MAY CAUSE SIGNIFICANT ERROR
 VIBRATIONAL TEMPERATURES:    697.65   901.55   996.21  1085.68  1176.11
          (KELVIN)           1249.28  1338.04  1365.29  1543.88  1560.27
                             1685.25  1734.77  1890.45  2048.33  2112.94
                             2203.17  2323.18  4710.48  4728.24  4755.01
                             5316.93

 Zero-point correction=                           0.071923 (Hartree/Particle)
 Thermal correction to Energy=                    0.075692
 Thermal correction to Enthalpy=                  0.076637
 Thermal correction to Gibbs Free Energy=         0.045632
 Sum of electronic and zero-point Energies=           -225.453207
 Sum of electronic and thermal Energies=              -225.449438
 Sum of electronic and thermal Enthalpies=            -225.448494
 Sum of electronic and thermal Free Energies=         -225.479498

                     E (Thermal)             CV                S
                      KCAL/MOL        CAL/MOL-KELVIN    CAL/MOL-KELVIN
 TOTAL                   47.498             13.320             65.254
 ELECTRONIC               0.000              0.000              0.000
 TRANSLATIONAL            0.889              2.981             38.570
 ROTATIONAL               0.889              2.981             24.131
 VIBRATIONAL             45.720              7.359              2.553
 VIBRATION  1             0.841              1.284              0.697
                       Q            LOG10(Q)             LN(Q)
 TOTAL BOT       0.102502D-20        -20.989270        -48.329579
 TOTAL V=0       0.123819D+13         12.092786         27.844668
 VIB (BOT)       0.110893D-32        -32.955097        -75.881916
 VIB (BOT)  1    0.343466D+00         -0.464116         -1.068666
 VIB (V=0)       0.133955D+01          0.126958          0.292332
 VIB (V=0)  1    0.110660D+01          0.043992          0.101296
 ELECTRONIC      0.100000D+01          0.000000          0.000000
 TRANSLATIONAL   0.220588D+08          7.343582         16.909224
 ROTATIONAL      0.419030D+05          4.622245         10.643113
 ***** Axes restored to original set *****
 -------------------------------------------------------------------
 Center     Atomic                   Forces (Hartrees/Bohr)
 Number     Number              X              Y              Z
 -------------------------------------------------------------------
    1          1           0.000020171   -0.000020777    0.000000000
    2          6          -0.000093652    0.000141556    0.000000000
    3          1           0.000010446    0.000015339    0.000000000
    4          6           0.000016361   -0.000077905    0.000000000
    5          1          -0.000013937   -0.000000278    0.000000000
    6          6          -0.000044454    0.000014645    0.000000000
    7          7           0.000056162   -0.000013018    0.000000000
    8          1          -0.000002192    0.000009480    0.000000000
    9          7           0.000051095   -0.000069042    0.000000000
 -------------------------------------------------------------------
 Cartesian Forces:  Max     0.000141556 RMS     0.000042822

 GradGradGradGradGradGradGradGradGradGradGradGradGradGradGradGradGradGrad
 Berny optimization.
 Internal  Forces:  Max     0.000091727 RMS     0.000022715
 Search for a local minimum.
 Step number   1 out of a maximum of  48
 All quantities printed in internal units (Hartrees-Bohrs-Radians)
 Second derivative matrix not updated -- analytic derivatives used.
     Eigenvalues ---    0.00622   0.01044   0.01598   0.02786   0.05712
     Eigenvalues ---    0.06074   0.09884   0.10883   0.11591   0.12386
     Eigenvalues ---    0.23020   0.27349   0.35718   0.37580   0.38025
     Eigenvalues ---    0.38290   0.41754   0.43982   0.48570   0.51777
     Eigenvalues ---    0.585621000.000001000.000001000.000001000.00000
     Eigenvalues --- 1000.000001000.000001000.000001000.000001000.00000
     Eigenvalues --- 1000.000001000.000001000.000001000.000001000.00000
     Eigenvalues --- 1000.000001000.000001000.00000
 Angle between quadratic step and forces=  37.91 degrees.
 Linear search not attempted -- first point.
 Iteration  1 RMS(Cart)=  0.00011539 RMS(Int)=  0.00000002
 Iteration  2 RMS(Cart)=  0.00000002 RMS(Int)=  0.00000000
 Variable       Old X    -DE/DX   Delta X   Delta X   Delta X     New X
                                 (Linear)    (Quad)   (Total)
    R1        2.04613   0.00001   0.00000   0.00003   0.00003   2.04615
    R2        2.60710   0.00006   0.00000   0.00014   0.00014   2.60725
    R3        2.56810  -0.00009   0.00000  -0.00024  -0.00024   2.56786
    R4        2.04478  -0.00001   0.00000  -0.00002  -0.00002   2.04476
    R5        2.67598   0.00002   0.00000   0.00007   0.00007   2.67605
    R6        2.04832   0.00001   0.00000   0.00002   0.00002   2.04835
    R7        2.51925  -0.00002   0.00000  -0.00003  -0.00003   2.51922
    R8        2.55805  -0.00002   0.00000  -0.00006  -0.00006   2.55798
    R9        1.90876   0.00001   0.00000   0.00002   0.00002   1.90878
    A1        2.30407  -0.00003   0.00000  -0.00034  -0.00034   2.30374
    A2        2.12499   0.00002   0.00000   0.00028   0.00028   2.12527
    A3        1.85412   0.00001   0.00000   0.00006   0.00006   1.85418
    A4        2.22305  -0.00001   0.00000  -0.00017  -0.00017   2.22288
    A5        1.82337  -0.00002   0.00000  -0.00008  -0.00008   1.82330
    A6        2.23677   0.00003   0.00000   0.00024   0.00024   2.23701
    A7        2.24128   0.00003   0.00000   0.00014   0.00014   2.24142
    A8        1.95776  -0.00003   0.00000  -0.00007  -0.00007   1.95769
    A9        2.08414   0.00000   0.00000  -0.00007  -0.00007   2.08407
   A10        1.81173   0.00003   0.00000   0.00009   0.00009   1.81182
   A11        1.97779   0.00000   0.00000   0.00000   0.00000   1.97779
   A12        2.23380   0.00000   0.00000   0.00003   0.00003   2.23383
   A13        2.07159   0.00000   0.00000  -0.00003  -0.00003   2.07156
    D1        0.00000   0.00000   0.00000   0.00000   0.00000   0.00000
    D2        3.14159   0.00000   0.00000   0.00000   0.00000   3.14159
    D3        3.14159   0.00000   0.00000   0.00000   0.00000   3.14159
    D4        0.00000   0.00000   0.00000   0.00000   0.00000   0.00000
    D5        3.14159   0.00000   0.00000   0.00000   0.00000   3.14159
    D6        0.00000   0.00000   0.00000   0.00000   0.00000   0.00000
    D7        0.00000   0.00000   0.00000   0.00000   0.00000   0.00000
    D8        3.14159   0.00000   0.00000   0.00000   0.00000   3.14159
    D9        3.14159   0.00000   0.00000   0.00000   0.00000   3.14159
   D10        0.00000   0.00000   0.00000   0.00000   0.00000   0.00000
   D11        0.00000   0.00000   0.00000   0.00000   0.00000   0.00000
   D12        3.14159   0.00000   0.00000   0.00000   0.00000   3.14159
   D13        0.00000   0.00000   0.00000   0.00000   0.00000   0.00000
   D14        3.14159   0.00000   0.00000   0.00000   0.00000   3.14159
   D15        0.00000   0.00000   0.00000   0.00000   0.00000   0.00000
   D16        3.14159   0.00000   0.00000   0.00000   0.00000   3.14159
         Item               Value     Threshold  Converged?
 Maximum Force            0.000092     0.000450     YES
 RMS     Force            0.000023     0.000300     YES
 Maximum Displacement     0.000404     0.001800     YES
 RMS     Displacement     0.000115     0.001200     YES
 Predicted change in Energy=-3.550370D-08
 Optimization completed.
    -- Stationary point found.
                         ----------------------------
                         !   Optimized Parameters   !
                         ! (Angstroms and Degrees)  !
 ------------------------                            -------------------------
 ! Name  Definition              Value          Derivative Info.             !
 -----------------------------------------------------------------------------
 ! R1    R(1,2)                  1.0828         -DE/DX =    0.               !
 ! R2    R(2,4)                  1.3796         -DE/DX =    0.0001           !
 ! R3    R(2,9)                  1.359          -DE/DX =   -0.0001           !
 ! R4    R(3,4)                  1.082          -DE/DX =    0.               !
 ! R5    R(4,6)                  1.4161         -DE/DX =    0.               !
 ! R6    R(5,6)                  1.0839         -DE/DX =    0.               !
 ! R7    R(6,7)                  1.3331         -DE/DX =    0.               !
 ! R8    R(7,9)                  1.3537         -DE/DX =    0.               !
 ! R9    R(8,9)                  1.0101         -DE/DX =    0.               !
 ! A1    A(1,2,4)              132.0136         -DE/DX =    0.               !
 ! A2    A(1,2,9)              121.753          -DE/DX =    0.               !
 ! A3    A(4,2,9)              106.2334         -DE/DX =    0.               !
 ! A4    A(2,4,3)              127.3713         -DE/DX =    0.               !
 ! A5    A(2,4,6)              104.4714         -DE/DX =    0.               !
 ! A6    A(3,4,6)              128.1572         -DE/DX =    0.               !
 ! A7    A(4,6,5)              128.4159         -DE/DX =    0.               !
 ! A8    A(4,6,7)              112.1715         -DE/DX =    0.               !
 ! A9    A(5,6,7)              119.4126         -DE/DX =    0.               !
 ! A10   A(6,7,9)              103.8046         -DE/DX =    0.               !
 ! A11   A(2,9,7)              113.3192         -DE/DX =    0.               !
 ! A12   A(2,9,8)              127.9873         -DE/DX =    0.               !
 ! A13   A(7,9,8)              118.6935         -DE/DX =    0.               !
 ! D1    D(1,2,4,3)              0.             -DE/DX =    0.               !
 ! D2    D(1,2,4,6)            180.             -DE/DX =    0.               !
 ! D3    D(9,2,4,3)            180.             -DE/DX =    0.               !
 ! D4    D(9,2,4,6)              0.             -DE/DX =    0.               !
 ! D5    D(1,2,9,7)            180.             -DE/DX =    0.               !
 ! D6    D(1,2,9,8)              0.             -DE/DX =    0.               !
 ! D7    D(4,2,9,7)              0.             -DE/DX =    0.               !
 ! D8    D(4,2,9,8)            180.             -DE/DX =    0.               !
 ! D9    D(2,4,6,5)            180.             -DE/DX =    0.               !
 ! D10   D(2,4,6,7)              0.             -DE/DX =    0.               !
 ! D11   D(3,4,6,5)              0.             -DE/DX =    0.               !
 ! D12   D(3,4,6,7)            180.             -DE/DX =    0.               !
 ! D13   D(4,6,7,9)              0.             -DE/DX =    0.               !
 ! D14   D(5,6,7,9)            180.             -DE/DX =    0.               !
 ! D15   D(6,7,9,2)              0.             -DE/DX =    0.               !
 ! D16   D(6,7,9,8)            180.             -DE/DX =    0.               !
 -----------------------------------------------------------------------------
 GradGradGradGradGradGradGradGradGradGradGradGradGradGradGradGradGradGrad

 1\1\GINC-FERRUM\Freq\RQCISD-FC\6-31G(d)\C3H4N2\RDJ3\09-Nov-1999\0\\#N
 GEOM=ALLCHECK GUESS=TCHECK RQCISD(FC)/6-31G(D) FREQ\\1H pyrazole C3H4N
 2 casno=288131\\0,1\H,2.1078377208,0.7340213508,0.\C,1.1127067862,0.30
 73011983,0.\H,1.2703551242,-1.8975887775,0.\C,0.6680219864,-0.99868686
 98,0.\H,-1.479742908,-1.687696199,0.\C,-0.74400003,-0.8917200862,0.\N,
 -1.1524042245,0.3773138512,0.\H,-0.0519904879,2.0962290198,0.\N,-0.000
 0003333,1.0874960278,0.\\Version=IBM-RS6000-G98RevA.4\State=1-A'\HF=-2
 24.7904949\MP2=-225.5032411\MP3=-225.5157843\MP4D=-225.5341671\MP4DQ=-
 225.5162409\MP4SDQ=-225.5236561\QCISD=-225.5251303\RMSD=7.723e-10\RMSF
 =4.282e-05\Dipole=0.8620282,0.334286,0.\DipoleDeriv=-0.0003856,-0.0437
 162,0.,-0.0544683,0.0648902,0.,0.,0.,0.1764961,0.029256,-0.1782368,0.,
 0.0313303,0.4091682,0.,0.,0.,-0.054133,0.0478126,0.0701521,0.,0.063873
 ,0.0112005,0.,0.,0.,0.1692157,-0.18246,-0.1992138,0.,-0.1307804,-0.154
 6311,0.,0.,0.,-0.2351737,0.007026,-0.0763877,0.,-0.0622552,0.0152651,0
 .,0.,0.,0.138119,0.3849927,0.1514821,0.,0.0220924,0.04815,0.,0.,0.,-0.
 04109,-0.4432699,0.3080177,0.,0.2045142,-0.0596708,0.,0.,0.,-0.2410335
 ,0.1818107,-0.0097585,0.,-0.0179539,0.2577953,0.,0.,0.,0.3395604,-0.02
 50386,-0.0226118,0.,-0.0569126,-0.5925732,0.,0.,0.,-0.2520246\PG=CS [S
 G(C3H4N2)]\NImag=0\\0.33009224,0.11764467,0.10326934,0.,0.,0.02015706,
 -0.31320859,-0.11828976,0.,0.84807353,-0.10847004,-0.11349431,0.,0.122
 81886,0.71104854,0.,0.,-0.02350261,0.,0.,0.10918263,-0.00010210,0.0007
 3456,0.,0.01247239,-0.01181059,0.,0.15140592,-0.00041380,0.00021047,0.
 ,0.01866022,-0.00992314,0.,-0.15289489,0.27887951,0.,0.,-0.00219154,0.
 ,0.,-0.00436860,0.,0.,0.02054883,0.00244496,-0.02316224,0.,-0.14418257
 ,-0.06936078,0.,-0.15426107,0.14031935,0.,0.64694812,0.00201143,0.0040
 8703,0.,-0.09934371,-0.37172044,0.,0.14278808,-0.27078006,0.,-0.124318
 54,0.84947007,0.,0.,-0.00081808,0.,0.,-0.05361244,0.,0.,-0.02174861,0.
 ,0.,0.10128450,0.00020343,-0.00148852,0.,-0.00633645,0.00126168,0.,0.0
 0019064,0.00049754,0.,-0.00635179,-0.02113213,0.,0.20415443,-0.0000363
 0,0.00070684,0.,0.00311868,-0.00084415,0.,-0.00067830,-0.00021177,0.,0
 .00546636,0.00907289,0.,0.15956781,0.23011460,0.,0.,0.00075708,0.,0.,0
 .00506900,0.,0.,-0.00123861,0.,0.,-0.00106098,0.,0.,0.02417974,-0.0004
 0907,-0.00236231,0.,-0.03142170,-0.09167800,0.,-0.00168277,-0.00354557
 ,0.,-0.30700589,0.02645945,0.,-0.20663401,-0.14421670,0.,0.72502186,0.
 00123079,-0.00675257,0.,-0.01898443,0.01893177,0.,0.02503248,0.0064117
 9,0.,-0.01013249,-0.11964073,0.,-0.15337604,-0.21334498,0.,0.12694880,
 0.81067923,0.,0.,0.00573587,0.,0.,0.00641865,0.,0.,-0.00540185,0.,0.,-
 0.05634602,0.,0.,-0.02892171,0.,0.,0.13192135,-0.00186515,0.00419194,0
 .,-0.09402792,0.01049711,0.,-0.00715362,-0.00224895,0.,-0.03193746,0.0
 1578882,0.,0.01238739,-0.02307193,0.,-0.13977502,0.07264813,0.,0.50428
 191,0.00263965,-0.00314129,0.,-0.01403168,-0.03475034,0.,0.00249252,0.
 00062468,0.,0.09068184,-0.01342940,0.,0.00924206,-0.01814880,0.,0.1095
 7575,-0.37352849,0.,-0.04094074,0.59667281,0.,0.,0.00667237,0.,0.,0.01
 627256,0.,0.,0.00678862,0.,0.,0.01905898,0.,0.,-0.00818825,0.,0.,-0.07
 019552,0.,0.,0.10292312,-0.00026454,-0.00066073,0.,0.01128303,0.025302
 20,0.,0.00101444,0.00112169,0.,-0.00634925,0.00448866,0.,0.00092999,-0
 .00167823,0.,-0.00865759,-0.00559561,0.,0.00913070,-0.03526988,0.,0.06
 945500,0.00035574,-0.00003292,0.,-0.00517447,-0.00647068,0.,-0.0002726
 0,-0.00009668,0.,0.00396731,0.00129561,0.,0.00039159,-0.00037561,0.,-0
 .00576142,0.00131551,0.,0.00264648,-0.01243538,0.,-0.02247110,0.484068
 44,0.,0.,-0.00125880,0.,0.,-0.00968399,0.,0.,0.00243587,0.,0.,0.003328
 93,0.,0.,0.00234223,0.,0.,0.00428125,0.,0.,-0.01332135,0.,0.,0.0116359
 3,-0.01688921,0.02339052,0.,-0.28266829,0.12148418,0.,-0.00188366,-0.0
 0149689,0.,0.00068811,0.05322798,0.,0.00145430,0.00152179,0.,-0.029420
 81,-0.03776270,0.,-0.25106671,-0.12438106,0.,-0.07653741,0.02631267,0.
 ,0.65635355,-0.01497631,0.01514013,0.,0.11122040,-0.19279187,0.,-0.005
 39141,-0.00511873,0.,-0.01344015,-0.08832265,0.,0.00502964,-0.00697206
 ,0.,-0.01542330,-0.12409287,0.,-0.03950124,-0.14184885,0.,0.03475633,-
 0.46727369,0.,-0.06229020,1.01128890,0.,0.,-0.00554795,0.,0.,-0.045773
 55,0.,0.,0.00517966,0.,0.,0.00991684,0.,0.,0.00706197,0.,0.,0.01251512
 ,0.,0.,-0.06002825,0.,0.,0.00023244,0.,0.,0.07644933\\-0.00002017,0.00
 002078,0.,0.00009365,-0.00014156,0.,-0.00001045,-0.00001534,0.,-0.0000
 1636,0.00007791,0.,0.00001394,0.00000028,0.,0.00004445,-0.00001464,0.,
 -0.00005616,0.00001302,0.,0.00000219,-0.00000948,0.,-0.00005109,0.0000
 6904,0.\\\@

 HE WHO LOVES TO READ, AND KNOWS HOW TO REFLECT,
 HAS LAID BY A PERPETUAL FEAST FOR HIS OLD AGE.
 -- UNCLE ESEK, "SCRIBNER'S MONTHLY", SEPT. 1880
 Job cpu time:  0 days 19 hours 11 minutes 14.8 seconds.
 File lengths (MBytes):  RWF=  484 Int=    0 D2E=    0 Chk=    4 Scr=    1
 Normal termination of Gaussian 98.
