 Gaussian 98, Revision A.4,
 Gaussian 98:  x86-Linux-G98RevA.4 11-Sep-1998

 ---------------------
 #QCISD/3-21G opt freq
 ---------------------

 -------------------------------
 1H pyrazole C3H4N2 casno=288131
 -------------------------------
 Symbolic Z-matrix:
 Charge =  0 Multiplicity = 1

 SCF Done:  E(RHF) =  -223.462889754     A.U. after   14 cycles
 SCF Done:  E(RHF) =  -223.515938071     A.U. after   14 cycles
 SCF Done:  E(RHF) =  -223.518698382     A.U. after   14 cycles
 SCF Done:  E(RHF) =  -223.519607653     A.U. after   12 cycles
 SCF Done:  E(RHF) =  -223.520007852     A.U. after   12 cycles
 SCF Done:  E(RHF) =  -223.519942882     A.U. after   11 cycles
 SCF Done:  E(RHF) =  -223.519972792     A.U. after   10 cycles
 SCF Done:  E(RHF) =  -223.520012993     A.U. after   10 cycles
 Optimization completed.
    -- Stationary point found.
 Normal termination of Gaussian 98.

 ---------------------------------------------------
 #N Geom=AllCheck Guess=TCheck RQCISD(FC)/3-21G Freq
 ---------------------------------------------------

 1H pyrazole C3H4N2 casno=288131
 -------------------------------
 Redundant internal coordinates taken from checkpointfile:
 /wrk/rdj3/Gau-19480.chk
 Charge =  0 Multiplicity = 1

                         Standard orientation:
 ---------------------------------------------------------------------
 Center     Atomic     Atomic              Coordinates (Angstroms)
 Number     Number      Type              X           Y           Z
 ---------------------------------------------------------------------
    1          1             0        2.127409    0.735013    0.000000
    2          6             0        1.127499    0.321389    0.000000
    3          1             0        1.300002   -1.888747    0.000000
    4          6             0        0.689119   -0.997123    0.000000
    5          1             0       -1.451945   -1.737274    0.000000
    6          6             0       -0.742344   -0.920836    0.000000
    7          7             0       -1.193875    0.356859    0.000000
    8          1             0       -0.063984    2.128908    0.000000
    9          7             0        0.000000    1.120501    0.000000
 ---------------------------------------------------------------------

 SCF Done:  E(RHF) =  -223.520012993     A.U. after    1 cycles
 SCF Done:  E(RHF) =  -223.519989185     A.U. after    7 cycles
 SCF Done:  E(RHF) =  -223.520014842     A.U. after    8 cycles
 SCF Done:  E(RHF) =  -223.520010859     A.U. after    8 cycles
 SCF Done:  E(RHF) =  -223.519981329     A.U. after    7 cycles
 SCF Done:  E(RHF) =  -223.520042962     A.U. after    7 cycles
 SCF Done:  E(RHF) =  -223.520012951     A.U. after    7 cycles
 SCF Done:  E(RHF) =  -223.520012054     A.U. after   10 cycles
 SCF Done:  E(RHF) =  -223.520012059     A.U. after   10 cycles
 SCF Done:  E(RHF) =  -223.519987913     A.U. after    9 cycles
 SCF Done:  E(RHF) =  -223.520034557     A.U. after    9 cycles
 SCF Done:  E(RHF) =  -223.520012764     A.U. after    8 cycles

  The electronic state is 1-A'.
 Alpha  occ. eigenvalues --  -15.56424 -15.52476 -11.23590 -11.20789 -11.17482
 Alpha  occ. eigenvalues --   -1.34764  -1.09497  -1.04020  -0.81971  -0.78434
 Alpha  occ. eigenvalues --   -0.73857  -0.60523  -0.58849  -0.58011  -0.56499
 Alpha  occ. eigenvalues --   -0.44590  -0.36725  -0.34094
 Alpha virt. eigenvalues --    0.16516   0.24265   0.25773   0.30187   0.33257
 Alpha virt. eigenvalues --    0.34312   0.40085   0.42102   0.50731   0.65205
 Alpha virt. eigenvalues --    0.66127   0.93327   0.97842   0.98303   1.00487

                     1                      2                      3
                    A"                     A"                     A"
 Frequencies --   551.3797               642.6878               672.5951
 Red. masses --     1.9570                 2.0418                 2.6486
 Frc consts  --     0.3505                 0.4969                 0.7060
 IR Inten    --    97.7672                 1.3772                31.8441
 Raman Activ --     0.0000                 0.0000                 0.0000

                     4                      5                      6
                    A"                     A"                     A"
 Frequencies --   763.7204               853.7814               887.8645
 Red. masses --     1.2209                 1.2549                 1.3479
 Frc consts  --     0.4196                 0.5390                 0.6261
 IR Inten    --    90.7844                 6.4641                 6.8484
 Raman Activ --     0.0000                 0.0000                 0.0000

                     7                      8                      9
                    A'                     A'                     A'
 Frequencies --   917.5436               950.8396               972.3939
 Red. masses --     5.5827                 5.1999                 3.4761
 Frc consts  --     2.7692                 2.7699                 1.9366
 IR Inten    --    21.6307                 4.8946                 4.9935
 Raman Activ --     0.0000                 0.0000                 0.0000

                    10                     11                     12
                    A'                     A'                     A'
 Frequencies --  1054.7290              1097.6862              1151.5167
 Red. masses --     1.7554                 2.6246                 1.6396
 Frc consts  --     1.1505                 1.8632                 1.2810
 IR Inten    --     1.4029                23.1296                 5.7293
 Raman Activ --     0.0000                 0.0000                 0.0000

                    13                     14                     15
                    A'                     A'                     A'
 Frequencies --  1235.3744              1354.2320              1394.1980
 Red. masses --     2.9680                 1.8538                 1.7800
 Frc consts  --     2.6688                 2.0031                 2.0385
 IR Inten    --     2.7980                 5.5020                 9.2107
 Raman Activ --     0.0000                 0.0000                 0.0000

                    16                     17                     18
                    A'                     A'                     A'
 Frequencies --  1437.3757              1537.4831              3242.2345
 Red. masses --     2.0785                 2.3997                 1.0916
 Frc consts  --     2.5302                 3.3422                 6.7608
 IR Inten    --    14.6437                14.8241                 1.5801
 Raman Activ --     0.0000                 0.0000                 0.0000

                    19                     20                     21
                    A'                     A'                     A'
 Frequencies --  3248.3359              3272.8384              3626.0406
 Red. masses --     1.0957                 1.1056                 1.0825
 Frc consts  --     6.8121                 6.9772                 8.3856
 IR Inten    --     4.4905                 0.3414                90.3476
 Raman Activ --     0.0000                 0.0000                 0.0000

 - Thermochemistry -
 -------------------
 Temperature   298.150 Kelvin.  Pressure   1.00000 Atm.
 Atom  1 has atomic number  1 and mass   1.00783

 Molecular mass:    68.03745 amu.
 Principal axes and moments of inertia in atomic units:
                           1         2         3
     EIGENVALUES --   194.40383 199.54471 393.94854
           X            0.99570   0.09265   0.00000
           Y           -0.09265   0.99570   0.00000
           Z            0.00000   0.00000   1.00000
 THIS MOLECULE IS AN ASYMMETRIC TOP.
 ROTATIONAL SYMMETRY NUMBER  1.
 ROTATIONAL TEMPERATURES (KELVIN)      0.44553     0.43406     0.21986
 ROTATIONAL CONSTANTS (GHZ)            9.28347     9.04429     4.58116
 Zero-point vibrational energy     184612.8 (Joules/Mol)
                                   44.12352 (Kcal/Mol)
 WARNING-- EXPLICIT CONSIDERATION OF   1 DEGREES OF FREEDOM AS
           VIBRATIONS MAY CAUSE SIGNIFICANT ERROR
 VIBRATIONAL TEMPERATURES:    793.31   924.68   967.71  1098.82  1228.39
          (KELVIN)           1277.43  1320.13  1368.04  1399.05  1517.51
                             1579.32  1656.77  1777.42  1948.43  2005.93
                             2068.05  2212.08  4664.83  4673.60  4708.86
                             5217.03

 Zero-point correction=                           0.070315 (Hartree/Particle)
 Thermal correction to Energy=                    0.074062
 Thermal correction to Enthalpy=                  0.075006
 Thermal correction to Gibbs Free Energy=         0.043997
 Sum of electronic and zero-point Energies=           -223.964833
 Sum of electronic and thermal Energies=              -223.961086
 Sum of electronic and thermal Enthalpies=            -223.960142
 Sum of electronic and thermal Free Energies=         -223.991151

                     E (Thermal)             CV                S
                      KCAL/MOL        CAL/MOL-KELVIN    CAL/MOL-KELVIN
 TOTAL                   46.475             13.454             65.265
 ELECTRONIC               0.000              0.000              0.000
 TRANSLATIONAL            0.889              2.981             38.570
 ROTATIONAL               0.889              2.981             24.239
 VIBRATIONAL             44.697              7.492              2.455
 VIBRATION  1             0.907              1.137              0.541
                       Q            LOG10(Q)             LN(Q)
 TOTAL BOT       0.579399D-20        -20.237023        -46.597466
 TOTAL V=0       0.127514D+13         12.105557         27.874074
 VIB (BOT)       0.593545D-32        -32.226547        -74.204366
 VIB (BOT)  1    0.284243D+00         -0.546311         -1.257926
 VIB (V=0)       0.130627D+01          0.116032          0.267175
 VIB (V=0)  1    0.107515D+01          0.031468          0.072457
 ELECTRONIC      0.100000D+01          0.000000          0.000000
 TRANSLATIONAL   0.220588D+08          7.343582         16.909224
 ROTATIONAL      0.442529D+05          4.645942         10.697676
 ***** Axes restored to original set *****
 -------------------------------------------------------------------
 Center     Atomic                   Forces (Hartrees/Bohr)
 Number     Number              X              Y              Z
 -------------------------------------------------------------------
    1          1           0.000039640    0.000000000   -0.000027634
    2          6          -0.000168104    0.000000000    0.000261299
    3          1          -0.000043339    0.000000000    0.000027531
    4          6           0.000140430    0.000000000   -0.000052854
    5          1          -0.000026803    0.000000000   -0.000021630
    6          6           0.000063897    0.000000000   -0.000076783
    7          7          -0.000122113    0.000000000    0.000107958
    8          1          -0.000013159    0.000000000   -0.000031747
    9          7           0.000129550    0.000000000   -0.000186139
 -------------------------------------------------------------------
 Cartesian Forces:  Max     0.000261299 RMS     0.000089104

 GradGradGradGradGradGradGradGradGradGradGradGradGradGradGradGradGradGrad
 Berny optimization.
 Internal  Forces:  Max     0.000188184 RMS     0.000045510
 Search for a local minimum.
 Step number   1 out of a maximum of  48
 All quantities printed in internal units (Hartrees-Bohrs-Radians)
 Second derivative matrix not updated -- analytic derivatives used.
     Eigenvalues ---    0.00789   0.01177   0.01685   0.02800   0.05967
     Eigenvalues ---    0.06319   0.10155   0.11063   0.11200   0.12067
     Eigenvalues ---    0.20241   0.23731   0.29427   0.34287   0.36903
     Eigenvalues ---    0.37312   0.37620   0.40324   0.46431   0.47002
     Eigenvalues ---    0.530611000.000001000.000001000.000001000.00000
     Eigenvalues --- 1000.000001000.000001000.000001000.000001000.00000
     Eigenvalues --- 1000.000001000.000001000.000001000.000001000.00000
     Eigenvalues --- 1000.000001000.000001000.00000
 Angle between quadratic step and forces=  25.84 degrees.
 Linear search not attempted -- first point.
 Iteration  1 RMS(Cart)=  0.00019664 RMS(Int)=  0.00000004
 Iteration  2 RMS(Cart)=  0.00000004 RMS(Int)=  0.00000000
 Variable       Old X    -DE/DX   Delta X   Delta X   Delta X     New X
                                 (Linear)    (Quad)   (Total)
    R1        2.04484  -0.00002   0.00000  -0.00006  -0.00006   2.04479
    R2        2.62574   0.00008   0.00000   0.00033   0.00033   2.62607
    R3        2.61154  -0.00019   0.00000  -0.00064  -0.00064   2.61090
    R4        2.04245  -0.00004   0.00000  -0.00010  -0.00010   2.04235
    R5        2.70891  -0.00003   0.00000  -0.00018  -0.00018   2.70873
    R6        2.04414  -0.00003   0.00000  -0.00008  -0.00008   2.04406
    R7        2.56083   0.00010   0.00000   0.00040   0.00040   2.56123
    R8        2.67814  -0.00005   0.00000  -0.00021  -0.00021   2.67793
    R9        1.90944  -0.00001   0.00000  -0.00001  -0.00001   1.90943
    A1        2.28401  -0.00005   0.00000  -0.00049  -0.00049   2.28352
    A2        2.13279   0.00004   0.00000   0.00051   0.00051   2.13330
    A3        1.86639   0.00000   0.00000  -0.00002  -0.00002   1.86637
    A4        2.21993  -0.00003   0.00000  -0.00031  -0.00031   2.21962
    A5        1.83854  -0.00002   0.00000  -0.00007  -0.00007   1.83847
    A6        2.22472   0.00004   0.00000   0.00038   0.00038   2.22510
    A7        2.23306  -0.00001   0.00000  -0.00006  -0.00006   2.23300
    A8        1.96374  -0.00003   0.00000  -0.00006  -0.00006   1.96368
    A9        2.08639   0.00004   0.00000   0.00012   0.00012   2.08651
   A10        1.80015  -0.00003   0.00000  -0.00016  -0.00016   1.80000
   A11        1.95597   0.00008   0.00000   0.00030   0.00030   1.95627
   A12        2.25074  -0.00007   0.00000  -0.00040  -0.00040   2.25033
   A13        2.07648  -0.00001   0.00000   0.00010   0.00010   2.07658
    D1        0.00000   0.00000   0.00000   0.00000   0.00000   0.00000
    D2        3.14159   0.00000   0.00000   0.00000   0.00000   3.14159
    D3        3.14159   0.00000   0.00000   0.00000   0.00000   3.14159
    D4        0.00000   0.00000   0.00000   0.00000   0.00000   0.00000
    D5        3.14159   0.00000   0.00000   0.00000   0.00000   3.14159
    D6        0.00000   0.00000   0.00000   0.00000   0.00000   0.00000
    D7        0.00000   0.00000   0.00000   0.00000   0.00000   0.00000
    D8        3.14159   0.00000   0.00000   0.00000   0.00000   3.14159
    D9        3.14159   0.00000   0.00000   0.00000   0.00000   3.14159
   D10        0.00000   0.00000   0.00000   0.00000   0.00000   0.00000
   D11        0.00000   0.00000   0.00000   0.00000   0.00000   0.00000
   D12        3.14159   0.00000   0.00000   0.00000   0.00000   3.14159
   D13        0.00000   0.00000   0.00000   0.00000   0.00000   0.00000
   D14        3.14159   0.00000   0.00000   0.00000   0.00000   3.14159
   D15        0.00000   0.00000   0.00000   0.00000   0.00000   0.00000
   D16        3.14159   0.00000   0.00000   0.00000   0.00000   3.14159
         Item               Value     Threshold  Converged?
 Maximum Force            0.000188     0.000450     YES
 RMS     Force            0.000046     0.000300     YES
 Maximum Displacement     0.000643     0.001800     YES
 RMS     Displacement     0.000197     0.001200     YES
 Predicted change in Energy=-1.705596D-07
 Optimization completed.
    -- Stationary point found.
                         ----------------------------
                         !   Optimized Parameters   !
                         ! (Angstroms and Degrees)  !
 ------------------------                            -------------------------
 ! Name  Definition              Value          Derivative Info.             !
 -----------------------------------------------------------------------------
 ! R1    R(1,2)                  1.0821         -DE/DX =    0.               !
 ! R2    R(2,4)                  1.3895         -DE/DX =    0.0001           !
 ! R3    R(2,9)                  1.382          -DE/DX =   -0.0002           !
 ! R4    R(3,4)                  1.0808         -DE/DX =    0.               !
 ! R5    R(4,6)                  1.4335         -DE/DX =    0.               !
 ! R6    R(5,6)                  1.0817         -DE/DX =    0.               !
 ! R7    R(6,7)                  1.3551         -DE/DX =    0.0001           !
 ! R8    R(7,9)                  1.4172         -DE/DX =    0.               !
 ! R9    R(8,9)                  1.0104         -DE/DX =    0.               !
 ! A1    A(1,2,4)              130.864          -DE/DX =    0.               !
 ! A2    A(1,2,9)              122.2            -DE/DX =    0.               !
 ! A3    A(4,2,9)              106.936          -DE/DX =    0.               !
 ! A4    A(2,4,3)              127.1926         -DE/DX =    0.               !
 ! A5    A(2,4,6)              105.3404         -DE/DX =    0.               !
 ! A6    A(3,4,6)              127.467          -DE/DX =    0.               !
 ! A7    A(4,6,5)              127.9447         -DE/DX =    0.               !
 ! A8    A(4,6,7)              112.5138         -DE/DX =    0.               !
 ! A9    A(5,6,7)              119.5415         -DE/DX =    0.               !
 ! A10   A(6,7,9)              103.1412         -DE/DX =    0.               !
 ! A11   A(2,9,7)              112.0686         -DE/DX =    0.0001           !
 ! A12   A(2,9,8)              128.9576         -DE/DX =   -0.0001           !
 ! A13   A(7,9,8)              118.9737         -DE/DX =    0.               !
 ! D1    D(1,2,4,3)              0.             -DE/DX =    0.               !
 ! D2    D(1,2,4,6)            180.             -DE/DX =    0.               !
 ! D3    D(9,2,4,3)            180.             -DE/DX =    0.               !
 ! D4    D(9,2,4,6)              0.             -DE/DX =    0.               !
 ! D5    D(1,2,9,7)            180.             -DE/DX =    0.               !
 ! D6    D(1,2,9,8)              0.             -DE/DX =    0.               !
 ! D7    D(4,2,9,7)              0.             -DE/DX =    0.               !
 ! D8    D(4,2,9,8)            180.             -DE/DX =    0.               !
 ! D9    D(2,4,6,5)            180.             -DE/DX =    0.               !
 ! D10   D(2,4,6,7)              0.             -DE/DX =    0.               !
 ! D11   D(3,4,6,5)              0.             -DE/DX =    0.               !
 ! D12   D(3,4,6,7)            180.             -DE/DX =    0.               !
 ! D13   D(4,6,7,9)              0.             -DE/DX =    0.               !
 ! D14   D(5,6,7,9)            180.             -DE/DX =    0.               !
 ! D15   D(6,7,9,2)              0.             -DE/DX =    0.               !
 ! D16   D(6,7,9,8)            180.             -DE/DX =    0.               !
 -----------------------------------------------------------------------------
 GradGradGradGradGradGradGradGradGradGradGradGradGradGradGradGradGradGrad

 1\1\GINC-QCHEM3\Freq\RQCISD-FC\3-21G\C3H4N2\RDJ3\27-Oct-1999\0\\#N GEO
 M=ALLCHECK GUESS=TCHECK RQCISD(FC)/3-21G FREQ\\1H pyrazole C3H4N2 casn
 o=288131\\0,1\H,-1.8958830517,0.,-1.2131530854\C,-0.9513229679,0.,-0.6
 852219816\H,0.6755582759,0.,-2.1911167178\C,0.3549032773,0.,-1.1589578
 168\H,2.2632844457,0.,0.0617213963\C,1.1827446087,0.,0.0113338662\N,0.
 4603981748,0.,1.1578943578\H,-1.6304526249,0.,1.3703896891\N,-0.879034
 8253,0.,0.6948534009\\Version=x86-Linux-G98RevA.4\State=1-A'\HF=-223.5
 20013\MP2=-224.0108815\MP3=-224.0175425\MP4D=-224.0321157\MP4DQ=-224.0
 246833\MP4SDQ=-224.0318039\QCISD=-224.035148\RMSD=9.379e-10\RMSF=8.910
 e-05\Dipole=-0.7981014,0.,-0.4503388\DipoleDeriv=0.002932,0.,-0.040758
 8,0.,0.190199,0.,-0.0478357,0.,0.0662056,0.1484119,0.,-0.0927615,0.,-0
 .0324096,0.,-0.3077736,0.,0.2657596,0.091618,0.,0.0268554,0.,0.1717228
 ,0.,0.032266,0.,-0.028136,-0.3310573,0.,-0.0003595,0.,-0.2497136,0.,-0
 .0808542,0.,-0.0183535,-0.0429936,0.,-0.0246846,0.,0.1509086,0.,-0.009
 6208,0.,0.0819719,0.236749,0.,0.1327514,0.,-0.0617647,0.,0.226498,0.,0
 .0717568,0.1192593,0.,-0.1148482,0.,-0.1899158,0.,-0.0351029,0.,-0.392
 6745,0.2272864,0.,-0.0351307,0.,0.376197,0.,-0.0540863,0.,0.2293192,-0
 .4527159,0.,0.1486884,0.,-0.3553116,0.,0.2767216,0.,-0.2755939\PG=CS [
 SG(C3H4N2)]\NImag=0\\0.29483144,0.,0.02077656,0.13531240,0.,0.12944335
 ,-0.29091397,0.,-0.11924082,0.83350451,0.,-0.02675022,0.,0.,0.12300539
 ,-0.12805964,0.,-0.12495422,0.10805935,0.,0.58634983,0.00003376,0.,-0.
 00081978,0.00202991,0.,0.02857246,0.08162938,0.,-0.00264618,0.,0.,-0.0
 0242448,0.,0.,0.02161938,0.00085985,0.,0.00000558,-0.00497472,0.,-0.00
 030994,-0.09188494,0.,0.34452719,-0.00701291,0.,0.01092362,-0.31544412
 ,0.,0.06551204,-0.08791342,0.,0.08597898,0.58344716,0.,0.00125956,0.,0
 .,-0.06497866,0.,0.,-0.02506613,0.,0.,0.11701924,-0.01655420,0.,0.0131
 5647,0.08560489,0.,-0.14142603,0.08245725,0.,-0.33260734,-0.13438352,0
 .,0.79438134,-0.00040443,0.,0.00027154,-0.00035934,0.,-0.00054424,-0.0
 0024159,0.,-0.00097256,-0.00421377,0.,0.00515147,0.37014667,0.,0.00053
 954,0.,0.,0.00455216,0.,0.,-0.00133884,0.,0.,0.00004128,0.,0.,0.024480
 62,-0.00115362,0.,0.00099158,-0.00337637,0.,-0.00684514,0.00077492,0.,
 0.00006979,-0.02328375,0.,0.00739588,0.01407986,0.,0.05746750,-0.00437
 998,0.,0.00498191,-0.07087927,0.,-0.00826601,0.01320738,0.,0.01366511,
 -0.16056549,0.,-0.07013417,-0.35317229,0.,-0.02491712,0.85091995,0.,0.
 00568323,0.,0.,0.01201584,0.,0.,-0.00368370,0.,0.,-0.06571395,0.,0.,-0
 .03066954,0.,0.,0.13885231,0.00089691,0.,-0.00267917,-0.06941564,0.,0.
 03599596,-0.01773005,0.,-0.00962084,-0.04538026,0.,-0.19246832,-0.0158
 6707,0.,-0.05999157,-0.00819768,0.,0.51794810,0.00105975,0.,0.00060996
 ,-0.05562040,0.,-0.04003761,-0.00242492,0.,-0.00082301,0.02248343,0.,0
 .03085225,-0.01180405,0.,0.02942584,-0.15523463,0.,0.11999341,0.381601
 11,0.,0.00547754,0.,0.,0.01569815,0.,0.,0.00587111,0.,0.,0.02172785,0.
 ,0.,-0.00696855,0.,0.,-0.06972469,0.,0.,0.09592138,0.00303205,0.,-0.00
 441036,-0.01822945,0.,-0.06765597,-0.00565617,0.,-0.00270681,-0.031479
 36,0.,-0.08223923,-0.00406237,0.,0.00432151,0.06785409,0.,-0.24688795,
 -0.05042698,0.,0.48314363,-0.00020919,0.,0.00072797,0.01005696,0.,-0.0
 0654195,0.00064375,0.,-0.00000971,0.00221122,0.,-0.00353560,-0.0004865
 2,0.,0.00150400,-0.00707519,0.,-0.00614740,-0.01429435,0.,0.02604662,0
 .28618657,0.,-0.00130390,0.,0.,-0.00749305,0.,0.,0.00210689,0.,0.,0.00
 353807,0.,0.,0.00192127,0.,0.,0.00410612,0.,0.,-0.01062799,0.,0.,0.013
 00125,-0.00075253,0.,-0.00044067,0.02617667,0.,-0.00358830,0.00131769,
 0.,0.00005768,-0.00272460,0.,-0.00644625,-0.00042278,0.,0.00111400,-0.
 00676543,0.,-0.00004431,-0.01244483,0.,0.01438180,-0.19976098,0.,0.245
 89777,0.00698718,0.,-0.03277069,-0.11237424,0.,-0.01870554,-0.00696527
 ,0.,-0.00184189,-0.03298749,0.,0.02053699,0.00052969,0.,0.00694346,-0.
 11282533,0.,0.04187484,-0.16574966,0.,0.01290625,-0.27703506,0.,0.1953
 7601,0.70042091,0.,-0.00303657,0.,0.,-0.05362368,0.,0.,0.00556276,0.,0
 .,0.01217517,0.,0.,0.00744252,0.,0.,0.00913756,0.,0.,-0.05738751,0.,0.
 ,-0.00525097,0.,0.,0.08498787,0.00642649,0.,-0.01110649,-0.00459745,0.
 ,-0.27757340,0.00296897,0.,0.00058352,0.07482262,0.,-0.05973672,0.0023
 6447,0.,-0.00452132,0.03178769,0.,-0.04225485,-0.07715776,0.,-0.097961
 74,0.18771603,0.,-0.25092608,-0.22431671,0.,0.74349974\\-0.00003964,0.
 ,0.00002763,0.00016810,0.,-0.00026130,0.00004334,0.,-0.00002753,-0.000
 14043,0.,0.00005285,0.00002680,0.,0.00002163,-0.00006390,0.,0.00007678
 ,0.00012211,0.,-0.00010796,0.00001316,0.,0.00003175,-0.00012955,0.,0.0
 0018614\\\@

 KNOWLEDGE IS CHIMERA - FOR BEYOND IT LIES OTHER KNOWLEDGE,
 AND THE INCOMPLETENESS OF WHAT IS KNOWN RENDERS THE KNOWING FALSE.
     -- THE THOMAS COVENANT CHRONICLES
 Job cpu time:  0 days  8 hours 31 minutes 32.3 seconds.
 File lengths (MBytes):  RWF=  213 Int=    0 D2E=    0 Chk=    4 Scr=    1
 Normal termination of Gaussian 98.
