 Gaussian 03, Revision B.05,
 Gaussian 03:  SGI64-G03RevB.05  8-Nov-2003

 ------------------------
 #PBEPBE/cc-pVTZ opt freq
 ------------------------

 --------------------------------------
 1hpyraz casno=288131 method=61 basis=6
 --------------------------------------
 Symbolic Z-matrix:
 Charge =  0 Multiplicity = 1

 SCF Done:  E(RPBE-PBE) =  -226.009078650     A.U. after   14 cycles
 SCF Done:  E(RPBE-PBE) =  -226.012115405     A.U. after   12 cycles
 SCF Done:  E(RPBE-PBE) =  -226.012220620     A.U. after    9 cycles
 SCF Done:  E(RPBE-PBE) =  -226.012237638     A.U. after    8 cycles
 SCF Done:  E(RPBE-PBE) =  -226.012239329     A.U. after    7 cycles
 Optimization completed.
    -- Stationary point found.
 Normal termination of Gaussian 03 at Fri Jun 18 05:13:48 2004.

 ------------------------------------------------------------------
 #P Geom=AllCheck Guess=Read SCRF=Check GenChk RPBEPBE/CC-pVTZ Freq
 ------------------------------------------------------------------

 1hpyraz casno=288131 method=61 basis=6
 --------------------------------------
 Redundant internal coordinates taken from checkpoint file:
 /wrk/rdj3/pbe6/Gau-1648137.chk
 Charge =  0 Multiplicity = 1

                         Standard orientation:
 ---------------------------------------------------------------------
 Center     Atomic     Atomic              Coordinates (Angstroms)
 Number     Number      Type              X           Y           Z
 ---------------------------------------------------------------------
    1          1             0        2.112878    0.731874    0.000000
    2          6             0        1.114565    0.307489    0.000000
    3          1             0        1.269192   -1.901402    0.000000
    4          6             0        0.664084   -1.002106    0.000000
    5          1             0       -1.484679   -1.688509    0.000000
    6          6             0       -0.744470   -0.893692    0.000000
    7          7             0       -1.150837    0.382441    0.000000
    8          1             0       -0.046608    2.098806    0.000000
    9          7             0        0.000000    1.087428    0.000000
 ---------------------------------------------------------------------

 SCF Done:  E(RPBE-PBE) =  -226.012239329     A.U. after    1 cycles

 The electronic state is 1-A'.
 Alpha  occ. eigenvalues --  -14.06197 -14.00055  -9.92238  -9.90058  -9.88324
 Alpha  occ. eigenvalues --   -0.95964  -0.74215  -0.70702  -0.55256  -0.53757
 Alpha  occ. eigenvalues --   -0.49009  -0.39650  -0.39190  -0.38074  -0.35166
 Alpha  occ. eigenvalues --   -0.24646  -0.23093  -0.22246
 Alpha virt. eigenvalues --   -0.02068   0.01356   0.02504   0.05370   0.06580
 Alpha virt. eigenvalues --    0.08384   0.14371   0.15877   0.17264   0.18358
 Alpha virt. eigenvalues --    0.25859   0.26499   0.29105   0.31109   0.31156

 Mulliken atomic charges:
              1
     1  H    0.102745
     2  C   -0.076909
     3  H    0.102429
     4  C   -0.183273
     5  H    0.095273
     6  C   -0.077824
     7  N   -0.166466
     8  H    0.152785
     9  N    0.051241
 Sum of Mulliken charges=   0.00000

 Dipole moment (field-independent basis, Debye):
    X=     2.0004    Y=     0.9397    Z=     0.0000  Tot=     2.2101
 Quadrupole moment (field-independent basis, Debye-Ang):
   XX=   -29.8650   YY=   -22.3248   ZZ=   -31.8132
   XY=     2.3975   XZ=     0.0000   YZ=     0.0000

  Exact polarizability:  53.132   1.800  53.526   0.000   0.000  26.937
 Approx polarizability: 106.108   1.594 107.290   0.000   0.000  45.211

                     1                      2                      3
                    A"                     A"                     A"
 Frequencies --   515.6335               621.6757               677.0445
 Red. masses --     1.6610                 2.5836                 2.9183
 Frc consts  --     0.2602                 0.5883                 0.7882
 IR Inten    --    45.0824                 0.4811                17.8911

                     4                      5                      6
                    A"                     A"                     A"
 Frequencies --   722.3746               804.1352               857.6789
 Red. masses --     1.2271                 1.2122                 1.3198
 Frc consts  --     0.3773                 0.4618                 0.5720
 IR Inten    --    82.7833                12.6563                 4.9718

                     7                      8                      9
                    A'                     A'                     A'
 Frequencies --   891.9628               912.4030              1018.0912
 Red. masses --     5.3639                 3.6704                 1.6523
 Frc consts  --     2.5144                 1.8003                 1.0091
 IR Inten    --     8.8609                 5.0175                33.1771

                    10                     11                     12
                    A'                     A'                     A'
 Frequencies --  1027.7742              1117.4968              1150.7086
 Red. masses --     1.4265                 1.7053                 3.2369
 Frc consts  --     0.8878                 1.2547                 2.5253
 IR Inten    --    10.3221                15.2559                 0.2164

                    13                     14                     15
                    A'                     A'                     A'
 Frequencies --  1239.8454              1335.4965              1390.7503
 Red. masses --     1.8414                 2.5063                 3.9754
 Frc consts  --     1.6678                 2.6337                 4.5304
 IR Inten    --     2.8726                 3.1373                 9.5978

                    16                     17                     18
                    A'                     A'                     A'
 Frequencies --  1436.0039              1514.8592              3167.8268
 Red. masses --     2.7288                 3.0326                 1.0927
 Frc consts  --     3.3153                 4.1002                 6.4605
 IR Inten    --     4.6795                 4.8631                 3.3622

                    19                     20                     21
                    A'                     A'                     A'
 Frequencies --  3182.2239              3201.7231              3577.1561
 Red. masses --     1.0931                 1.1061                 1.0811
 Frc consts  --     6.5216                 6.6807                 8.1508
 IR Inten    --     1.7758                 1.0626                67.2682

 - Thermochemistry -
 -------------------
 Temperature   298.150 Kelvin.  Pressure   1.00000 Atm.
 Atom  1 has atomic number  1 and mass   1.00783

 Molecular mass:    68.03745 amu.
 Principal axes and moments of inertia in atomic units:
                           1         2         3
     EIGENVALUES --   188.00228 192.51828 380.52057
           X            0.90974   0.41519   0.00000
           Y           -0.41519   0.90974   0.00000
           Z            0.00000   0.00000   1.00000
 This molecule is an asymmetric top.
 Rotational symmetry number  1.
 Rotational temperatures (Kelvin)      0.46071     0.44990     0.22762
 Rotational constants (GHZ):           9.59957     9.37439     4.74282
 Zero-point vibrational energy     181610.3 (Joules/Mol)
                                   43.40589 (Kcal/Mol)
 Warning -- explicit consideration of   1 degrees of freedom as
           vibrations may cause significant error
 Vibrational temperatures:    741.88   894.45   974.11  1039.33  1156.97
          (Kelvin)           1234.01  1283.33  1312.74  1464.80  1478.74
                             1607.83  1655.61  1783.86  1921.48  2000.98
                             2066.09  2179.54  4557.79  4578.50  4606.56
                             5146.72

 Zero-point correction=                           0.069172 (Hartree/Particle)
 Thermal correction to Energy=                    0.072993
 Thermal correction to Enthalpy=                  0.073937
 Thermal correction to Gibbs Free Energy=         0.042871
 Sum of electronic and zero-point Energies=           -225.943068
 Sum of electronic and thermal Energies=              -225.939246
 Sum of electronic and thermal Enthalpies=            -225.938302
 Sum of electronic and thermal Free Energies=         -225.969368

                     E (Thermal)             CV                S
                      KCal/Mol        Cal/Mol-Kelvin    Cal/Mol-Kelvin
 Total                   45.804             13.819             65.384
 Electronic               0.000              0.000              0.000
 Translational            0.889              2.981             38.570
 Rotational               0.889              2.981             24.136
 Vibrational             44.026              7.857              2.678
 Vibration  1             0.871              1.215              0.620

 Optimization completed.
    -- Stationary point found.
 Normal termination of Gaussian 03 at Fri Jun 18 07:06:53 2004.
