 Gaussian 03, Revision B.05,
 Gaussian 03:  SGI64-G03RevB.05  8-Nov-2003

 -----------------------
 #PBEPBE/6-31G* opt freq
 -----------------------

 --------------------------------------
 1hpyraz casno=288131 method=61 basis=1
 --------------------------------------
 Symbolic Z-matrix:
 Charge =  0 Multiplicity = 1

 SCF Done:  E(RPBE-PBE) =  -225.925151402     A.U. after   16 cycles
 SCF Done:  E(RPBE-PBE) =  -225.929789911     A.U. after   13 cycles
 SCF Done:  E(RPBE-PBE) =  -225.929909819     A.U. after   10 cycles
 SCF Done:  E(RPBE-PBE) =  -225.929926618     A.U. after    9 cycles
 SCF Done:  E(RPBE-PBE) =  -225.929928598     A.U. after    8 cycles
 Optimization completed.
    -- Stationary point found.
 Normal termination of Gaussian 03 at Wed Feb 25 21:29:10 2004.

 -------------------------------------------------------------------
 #P Geom=AllCheck Guess=Read SCRF=Check GenChk RPBEPBE/6-31G(d) Freq
 -------------------------------------------------------------------

 1hpyraz casno=288131 method=61 basis=1
 --------------------------------------
 Redundant internal coordinates taken from checkpoint file:
 /wrk/rdj3/pbe/Gau-118810.chk
 Charge =  0 Multiplicity = 1

                         Standard orientation:
 ---------------------------------------------------------------------
 Center     Atomic     Atomic              Coordinates (Angstroms)
 Number     Number      Type              X           Y           Z
 ---------------------------------------------------------------------
    1          1             0        2.120121    0.737726    0.000000
    2          6             0        1.119523    0.308326    0.000000
    3          1             0        1.274019   -1.909212    0.000000
    4          6             0        0.667041   -1.005957    0.000000
    5          1             0       -1.489194   -1.692330    0.000000
    6          6             0       -0.745468   -0.895064    0.000000
    7          7             0       -1.157426    0.384796    0.000000
    8          1             0       -0.049539    2.104142    0.000000
    9          7             0        0.000000    1.088896    0.000000
 ---------------------------------------------------------------------

 SCF Done:  E(RPBE-PBE) =  -225.929928598     A.U. after    1 cycles

 The electronic state is 1-A'.
 Alpha  occ. eigenvalues --  -14.07605 -14.01092  -9.93229  -9.90925  -9.89277
 Alpha  occ. eigenvalues --   -0.94956  -0.73397  -0.69848  -0.54623  -0.52914
 Alpha  occ. eigenvalues --   -0.48261  -0.38867  -0.37926  -0.37457  -0.34383
 Alpha  occ. eigenvalues --   -0.23604  -0.21898  -0.21079
 Alpha virt. eigenvalues --   -0.00718   0.04142   0.05190   0.10513   0.12973
 Alpha virt. eigenvalues --    0.14100   0.18107   0.19597   0.25800   0.36146
 Alpha virt. eigenvalues --    0.38389   0.49607   0.51178   0.51956   0.54951

 Mulliken atomic charges:
              1
     1  H    0.162892
     2  C    0.062712
     3  H    0.142550
     4  C   -0.236900
     5  H    0.148441
     6  C    0.024056
     7  N   -0.264237
     8  H    0.344676
     9  N   -0.384191
 Sum of Mulliken charges=   0.00000

 Dipole moment (field-independent basis, Debye):
    X=     2.0326    Y=     0.9539    Z=     0.0000  Tot=     2.2453
 Quadrupole moment (field-independent basis, Debye-Ang):
   XX=   -29.1858   YY=   -21.7157   ZZ=   -31.2907
   XY=     2.3404   XZ=     0.0000   YZ=     0.0000

  Exact polarizability:  47.770   1.887  48.800   0.000   0.000  17.364
 Approx polarizability:  98.360   0.877  98.792   0.000   0.000  28.225

                     1                      2                      3
                    A"                     A"                     A"
 Frequencies --   485.4344               618.3135               676.3039
 Red. masses --     1.7111                 2.8542                 2.9810
 Frc consts  --     0.2376                 0.6429                 0.8033
 IR Inten    --    52.6302                 0.0918                21.4365

                     4                      5                      6
                    A"                     A"                     A"
 Frequencies --   716.4005               790.0811               844.0846
 Red. masses --     1.2192                 1.1724                 1.2725
 Frc consts  --     0.3687                 0.4312                 0.5342
 IR Inten    --    68.8901                18.1339                 5.8099

                     7                      8                      9
                    A'                     A'                     A'
 Frequencies --   889.6087               911.6357              1029.3535
 Red. masses --     5.5378                 3.8200                 1.6188
 Frc consts  --     2.5822                 1.8705                 1.0106
 IR Inten    --     8.0764                 5.1056                31.3892

                    10                     11                     12
                    A'                     A'                     A'
 Frequencies --  1038.7731              1132.3426              1160.5398
 Red. masses --     1.4074                 1.7138                 3.2406
 Frc consts  --     0.8948                 1.2947                 2.5716
 IR Inten    --    10.9723                14.3667                 0.7080

                    13                     14                     15
                    A'                     A'                     A'
 Frequencies --  1254.2690              1349.8672              1411.9183
 Red. masses --     1.7683                 2.6177                 4.1813
 Frc consts  --     1.6390                 2.8103                 4.9111
 IR Inten    --     3.3796                 3.3161                10.3445

                    16                     17                     18
                    A'                     A'                     A'
 Frequencies --  1459.2314              1534.3397              3191.4650
 Red. masses --     2.7261                 2.9978                 1.0919
 Frc consts  --     3.4201                 4.1582                 6.5526
 IR Inten    --     5.3920                 5.4370                 4.6989

                    19                     20                     21
                    A'                     A'                     A'
 Frequencies --  3204.9965              3223.7052              3579.3090
 Red. masses --     1.0931                 1.1062                 1.0811
 Frc consts  --     6.6156                 6.7731                 8.1606
 IR Inten    --     3.2419                 1.4513                54.1607

 - Thermochemistry -
 -------------------
 Temperature   298.150 Kelvin.  Pressure   1.00000 Atm.
 Atom  1 has atomic number  1 and mass   1.00783

 Molecular mass:    68.03745 amu.
 Principal axes and moments of inertia in atomic units:
                           1         2         3
     EIGENVALUES --   188.87495 194.29022 383.16517
           X            0.91516   0.40309   0.00000
           Y           -0.40309   0.91516   0.00000
           Z            0.00000   0.00000   1.00000
 This molecule is an asymmetric top.
 Rotational symmetry number  1.
 Rotational temperatures (Kelvin)      0.45858     0.44580     0.22605
 Rotational constants (GHZ):           9.55522     9.28889     4.71009
 Zero-point vibrational energy     182442.3 (Joules/Mol)
                                   43.60476 (Kcal/Mol)
 Warning -- explicit consideration of   2 degrees of freedom as
           vibrations may cause significant error
 Vibrational temperatures:    698.43   889.61   973.05  1030.74  1136.75
          (Kelvin)           1214.45  1279.95  1311.64  1481.01  1494.56
                             1629.19  1669.76  1804.61  1942.16  2031.43
                             2099.51  2207.57  4591.80  4611.27  4638.19
                             5149.82

 Zero-point correction=                           0.069489 (Hartree/Particle)
 Thermal correction to Energy=                    0.073337
 Thermal correction to Enthalpy=                  0.074281
 Thermal correction to Gibbs Free Energy=         0.043162
 Sum of electronic and zero-point Energies=           -225.860440
 Sum of electronic and thermal Energies=              -225.856592
 Sum of electronic and thermal Enthalpies=            -225.855648
 Sum of electronic and thermal Free Energies=         -225.886767

                     E (Thermal)             CV                S
                      KCal/Mol        Cal/Mol-Kelvin    Cal/Mol-Kelvin
 Total                   46.020             13.878             65.496
 Electronic               0.000              0.000              0.000
 Translational            0.889              2.981             38.570
 Rotational               0.889              2.981             24.157
 Vibrational             44.242              7.916              2.769
 Vibration  1             0.841              1.282              0.696
 Vibration  2             0.978              0.993              0.419

 Optimization completed.
    -- Stationary point found.
 Normal termination of Gaussian 03 at Wed Feb 25 21:34:14 2004.
