 Gaussian 03, Revision B.05,
 Gaussian 03:  SGI64-G03RevB.05  8-Nov-2003

 -------------------------
 #PBEPBE/6-31+G** opt freq
 -------------------------

 --------------------------------------
 1hpyraz casno=288131 method=61 basis=4
 --------------------------------------
 Symbolic Z-matrix:
 Charge =  0 Multiplicity = 1

 SCF Done:  E(RPBE-PBE) =  -225.945154882     A.U. after   12 cycles
 SCF Done:  E(RPBE-PBE) =  -225.949861534     A.U. after   11 cycles
 SCF Done:  E(RPBE-PBE) =  -225.949984669     A.U. after   10 cycles
 SCF Done:  E(RPBE-PBE) =  -225.950008476     A.U. after   10 cycles
 SCF Done:  E(RPBE-PBE) =  -225.950009708     A.U. after    9 cycles
 Optimization completed.
    -- Stationary point found.
 Normal termination of Gaussian 03 at Thu Mar 25 12:25:20 2004.

 ----------------------------------------------------------------------
 #P Geom=AllCheck Guess=Read SCRF=Check GenChk RPBEPBE/6-31+G(d,p) Freq
 ----------------------------------------------------------------------

 1hpyraz casno=288131 method=61 basis=4
 --------------------------------------
 Redundant internal coordinates taken from checkpoint file:
 /wrk/rdj3/pbe4/Gau-245347.chk
 Charge =  0 Multiplicity = 1

                         Standard orientation:
 ---------------------------------------------------------------------
 Center     Atomic     Atomic              Coordinates (Angstroms)
 Number     Number      Type              X           Y           Z
 ---------------------------------------------------------------------
    1          1             0        2.120595    0.736452    0.000000
    2          6             0        1.119709    0.309193    0.000000
    3          1             0        1.273344   -1.909606    0.000000
    4          6             0        0.666995   -1.006596    0.000000
    5          1             0       -1.491228   -1.693229    0.000000
    6          6             0       -0.747310   -0.897397    0.000000
    7          7             0       -1.155740    0.384136    0.000000
    8          1             0       -0.048898    2.106048    0.000000
    9          7             0        0.000000    1.091455    0.000000
 ---------------------------------------------------------------------

 SCF Done:  E(RPBE-PBE) =  -225.950009708     A.U. after    1 cycles

 The electronic state is 1-A'.
 Alpha  occ. eigenvalues --  -14.08867 -14.02775  -9.94466  -9.92225  -9.90572
 Alpha  occ. eigenvalues --   -0.96335  -0.74671  -0.71088  -0.55639  -0.54104
 Alpha  occ. eigenvalues --   -0.49308  -0.40006  -0.39259  -0.38464  -0.35507
 Alpha  occ. eigenvalues --   -0.25119  -0.23336  -0.22507
 Alpha virt. eigenvalues --   -0.02659  -0.01359   0.01499   0.01730   0.02056
 Alpha virt. eigenvalues --    0.04176   0.05000   0.05144   0.07047   0.08763
 Alpha virt. eigenvalues --    0.10169   0.10388   0.10587   0.14265   0.15391

 Mulliken atomic charges:
              1
     1  H    0.162466
     2  C   -0.271092
     3  H    0.148397
     4  C    0.092390
     5  H    0.152073
     6  C   -0.259178
     7  N   -0.161969
     8  H    0.321050
     9  N   -0.184137
 Sum of Mulliken charges=   0.00000

 Dipole moment (field-independent basis, Debye):
    X=     2.1969    Y=     0.8679    Z=     0.0000  Tot=     2.3621
 Quadrupole moment (field-independent basis, Debye-Ang):
   XX=   -30.3969   YY=   -22.3978   ZZ=   -32.6311
   XY=     2.6379   XZ=     0.0000   YZ=     0.0000

  Exact polarizability:  56.408   0.803  55.198   0.000   0.000  32.055
 Approx polarizability: 107.599   0.453 106.887   0.000   0.000  48.834

                     1                      2                      3
                    A"                     A"                     A"
 Frequencies --   512.5634               613.2943               669.0772
 Red. masses --     1.7543                 2.6135                 2.7968
 Frc consts  --     0.2716                 0.5792                 0.7377
 IR Inten    --    52.2967                 0.0576                18.0225

                     4                      5                      6
                    A"                     A"                     A"
 Frequencies --   716.4794               795.2458               848.3160
 Red. masses --     1.2235                 1.2042                 1.2959
 Frc consts  --     0.3701                 0.4487                 0.5495
 IR Inten    --   104.4349                15.8647                 7.2699

                     7                      8                      9
                    A'                     A'                     A'
 Frequencies --   886.6817               908.4039              1024.0453
 Red. masses --     5.5516                 3.7849                 1.6084
 Frc consts  --     2.5716                 1.8402                 0.9938
 IR Inten    --     7.5554                 3.3441                36.2154

                    10                     11                     12
                    A'                     A'                     A'
 Frequencies --  1031.1344              1123.5757              1154.1413
 Red. masses --     1.4026                 1.7265                 3.2511
 Frc consts  --     0.8787                 1.2842                 2.5515
 IR Inten    --    11.4121                17.7184                 0.8252

                    13                     14                     15
                    A'                     A'                     A'
 Frequencies --  1245.6968              1342.2786              1401.6993
 Red. masses --     1.7501                 2.6524                 4.2236
 Frc consts  --     1.6001                 2.8156                 4.8893
 IR Inten    --     3.2609                 3.5237                10.7357

                    16                     17                     18
                    A'                     A'                     A'
 Frequencies --  1444.0438              1519.8638              3192.3657
 Red. masses --     2.7151                 3.0175                 1.0918
 Frc consts  --     3.3358                 4.1068                 6.5556
 IR Inten    --     6.1624                 5.4847                 2.3038

                    19                     20                     21
                    A'                     A'                     A'
 Frequencies --  3203.7358              3222.1816              3596.0394
 Red. masses --     1.0936                 1.1064                 1.0815
 Frc consts  --     6.6132                 6.7682                 8.2400
 IR Inten    --     1.5966                 0.5653                74.2557

 - Thermochemistry -
 -------------------
 Temperature   298.150 Kelvin.  Pressure   1.00000 Atm.
 Atom  1 has atomic number  1 and mass   1.00783

 Molecular mass:    68.03745 amu.
 Principal axes and moments of inertia in atomic units:
                           1         2         3
     EIGENVALUES --   189.51995 194.15544 383.67539
           X            0.91151   0.41128   0.00000
           Y           -0.41128   0.91151   0.00000
           Z            0.00000   0.00000   1.00000
 This molecule is an asymmetric top.
 Rotational symmetry number  1.
 Rotational temperatures (Kelvin)      0.45702     0.44611     0.22575
 Rotational constants (GHZ):           9.52270     9.29534     4.70382
 Zero-point vibrational energy     182136.6 (Joules/Mol)
                                   43.53169 (Kcal/Mol)
 Warning -- explicit consideration of   2 degrees of freedom as
           vibrations may cause significant error
 Vibrational temperatures:    737.46   882.39   962.65  1030.85  1144.18
          (Kelvin)           1220.54  1275.74  1306.99  1473.37  1483.57
                             1616.57  1660.55  1792.28  1931.24  2016.73
                             2077.65  2186.74  4593.10  4609.46  4636.00
                             5173.89

 Zero-point correction=                           0.069372 (Hartree/Particle)
 Thermal correction to Energy=                    0.073209
 Thermal correction to Enthalpy=                  0.074154
 Thermal correction to Gibbs Free Energy=         0.043053
 Sum of electronic and zero-point Energies=           -225.880638
 Sum of electronic and thermal Energies=              -225.876800
 Sum of electronic and thermal Enthalpies=            -225.875856
 Sum of electronic and thermal Free Energies=         -225.906957

                     E (Thermal)             CV                S
                      KCal/Mol        Cal/Mol-Kelvin    Cal/Mol-Kelvin
 Total                   45.940             13.880             65.457
 Electronic               0.000              0.000              0.000
 Translational            0.889              2.981             38.570
 Rotational               0.889              2.981             24.161
 Vibrational             44.162              7.919              2.726
 Vibration  1             0.868              1.222              0.627
 Vibration  2             0.973              1.004              0.427

 Optimization completed.
    -- Stationary point found.
 Normal termination of Gaussian 03 at Thu Mar 25 12:36:12 2004.
