 Gaussian 03, Revision C.02,
 Gaussian 03:  SGI64-G03RevC.02 12-Jun-2004

 --------------------
 #MP3/6-31G* opt freq
 --------------------

 -------------------------------------------------
 1H pyrazole C3H4N2 casno=288131 method=62 basis=1
 -------------------------------------------------
 Symbolic Z-matrix:
 Charge =  0 Multiplicity = 1

 SCF Done:  E(RHF) =  -224.739171388     A.U. after   14 cycles
 SCF Done:  E(RHF) =  -224.787126541     A.U. after   13 cycles
 SCF Done:  E(RHF) =  -224.790770632     A.U. after   13 cycles
 SCF Done:  E(RHF) =  -224.791015021     A.U. after   11 cycles
 SCF Done:  E(RHF) =  -224.791137894     A.U. after   12 cycles
 SCF Done:  E(RHF) =  -224.791146873     A.U. after    9 cycles
 Optimization completed.
    -- Stationary point found.
 Normal termination of Gaussian 03 at Sat Jan  8 11:27:50 2005.

 --------------------------------------------------------------------
 #N Geom=AllCheck Guess=Read SCRF=Check GenChk RMP3(FC)/6-31G(d) Freq
 --------------------------------------------------------------------

 1H pyrazole C3H4N2 casno=288131 method=62 basis=1
 -------------------------------------------------
 Redundant internal coordinates taken from checkpoint file:
 /chkpnt/Gau-739597.chk
 Charge =  0 Multiplicity = 1

                         Standard orientation:
 ---------------------------------------------------------------------
 Center     Atomic     Atomic              Coordinates (Angstroms)
 Number     Number      Type              X           Y           Z
 ---------------------------------------------------------------------
    1          1             0        2.104404    0.730764    0.000000
    2          6             0        1.111552    0.305433    0.000000
    3          1             0        1.264352   -1.895945    0.000000
    4          6             0        0.664703   -0.998239    0.000000
    5          1             0       -1.480355   -1.682540    0.000000
    6          6             0       -0.744289   -0.890489    0.000000
    7          7             0       -1.147183    0.379711    0.000000
    8          1             0       -0.049915    2.091677    0.000000
    9          7             0        0.000000    1.085405    0.000000
 ---------------------------------------------------------------------

 SCF Done:  E(RHF) =  -224.791146873     A.U. after    1 cycles
 SCF Done:  E(RHF) =  -224.791131926     A.U. after    7 cycles
 SCF Done:  E(RHF) =  -224.791160589     A.U. after    7 cycles
 SCF Done:  E(RHF) =  -224.791140397     A.U. after    7 cycles
 SCF Done:  E(RHF) =  -224.791148838     A.U. after    8 cycles
 SCF Done:  E(RHF) =  -224.791144607     A.U. after    8 cycles
 SCF Done:  E(RHF) =  -224.791118659     A.U. after    7 cycles
 SCF Done:  E(RHF) =  -224.791173304     A.U. after    7 cycles
 SCF Done:  E(RHF) =  -224.791146837     A.U. after    7 cycles
 SCF Done:  E(RHF) =  -224.791145902     A.U. after    9 cycles
 SCF Done:  E(RHF) =  -224.791145402     A.U. after    9 cycles
 SCF Done:  E(RHF) =  -224.791137133     A.U. after    9 cycles
 SCF Done:  E(RHF) =  -224.791152789     A.U. after    9 cycles
 SCF Done:  E(RHF) =  -224.791146676     A.U. after    7 cycles

 Alpha  occ. eigenvalues --  -15.64122 -15.58589 -11.27710 -11.24963 -11.22042
 Alpha  occ. eigenvalues --   -1.36904  -1.09109  -1.04661  -0.81965  -0.79485
 Alpha  occ. eigenvalues --   -0.73778  -0.60531  -0.59971  -0.58731  -0.55851
 Alpha  occ. eigenvalues --   -0.45291  -0.35789  -0.34004
 Alpha virt. eigenvalues --    0.17652   0.22518   0.24464   0.28028   0.30309
 Alpha virt. eigenvalues --    0.31463   0.40455   0.41100   0.45606   0.58002
 Alpha virt. eigenvalues --    0.65472   0.74120   0.77405   0.78236   0.82700

 Mulliken atomic charges:
              1
     1  H    0.200225
     2  C    0.034784
     3  H    0.186659
     4  C   -0.282116
     5  H    0.182584
     6  C   -0.004139
     7  N   -0.262436
     8  H    0.387176
     9  N   -0.442736
 Sum of Mulliken charges=   0.00000

 Dipole moment (field-independent basis, Debye):
    X=     2.1826    Y=     0.8768    Z=    -0.0012  Tot=     2.3522
 Quadrupole moment (field-independent basis, Debye-Ang):
   XX=   -29.5784   YY=   -21.8743   ZZ=   -31.7127
   XY=     2.5275   XZ=    -0.0002   YZ=    -0.0024

                     1                      2                      3
                    A"                     A"                     A"
 Frequencies --   509.5916               629.3229               699.9835
 Red. masses --     1.8828                 3.1649                 2.7146
 Frc consts  --     0.2881                 0.7385                 0.7837
 IR Inten    --    63.3366                 0.0046                23.5254

                     4                      5                      6
                    A"                     A"                     A"
 Frequencies --   751.6652               813.0729               862.0810
 Red. masses --     1.2125                 1.1488                 1.2210
 Frc consts  --     0.4036                 0.4475                 0.5346
 IR Inten    --    90.5029                 6.1292                16.9241

                     7                      8                      9
                    A'                     A'                     A'
 Frequencies --   939.4002               959.2574              1090.3758
 Red. masses --     5.7970                 4.1270                 1.5055
 Frc consts  --     3.0141                 2.2375                 1.0546
 IR Inten    --     8.2381                 5.1753                18.4469

                    10                     11                     12
                    A'                     A'                     A'
 Frequencies --  1095.5388              1183.7287              1227.2803
 Red. masses --     1.5063                 1.9243                 2.6062
 Frc consts  --     1.0652                 1.5886                 2.3128
 IR Inten    --    23.5548                19.4319                 1.4554

                    13                     14                     15
                    A'                     A'                     A'
 Frequencies --  1326.4466              1437.2891              1487.8821
 Red. masses --     1.6646                 2.7028                 3.9054
 Frc consts  --     1.7256                 3.2896                 5.0939
 IR Inten    --     2.2055                 4.8722                19.2457

                    16                     17                     18
                    A'                     A'                     A'
 Frequencies --  1552.0514              1629.3664              3309.9406
 Red. masses --     2.7459                 3.1479                 1.0929
 Frc consts  --     3.8972                 4.9238                 7.0545
 IR Inten    --     9.0136                 6.5251                 3.7936

                    19                     20                     21
                    A'                     A'                     A'
 Frequencies --  3321.8971              3340.0179              3736.0228
 Red. masses --     1.0951                 1.1082                 1.0821
 Frc consts  --     7.1197                 7.2840                 8.8992
 IR Inten    --     2.1558                 0.3317                89.1637

 - Thermochemistry -
 -------------------
 Temperature   298.150 Kelvin.  Pressure   1.00000 Atm.
 Atom  1 has atomic number  1 and mass   1.00783

 Molecular mass:    68.03745 amu.
 Principal axes and moments of inertia in atomic units:
                           1         2         3
     EIGENVALUES --   186.84507 191.56217 378.40724
           X            0.92036   0.39106   0.00000
           Y           -0.39106   0.92036   0.00000
           Z            0.00000   0.00000   1.00000
 This molecule is an asymmetric top.
 Rotational symmetry number  1.
 Rotational temperatures (Kelvin)      0.46356     0.45214     0.22889
 Rotational constants (GHZ):           9.65903     9.42118     4.76931
 Zero-point vibrational energy     190817.6 (Joules/Mol)
                                   45.60650 (Kcal/Mol)
 Warning -- explicit consideration of   1 degrees of freedom as
           vibrations may cause significant error
 Vibrational temperatures:    733.19   905.45  1007.12  1081.48  1169.83
          (Kelvin)           1240.34  1351.59  1380.16  1568.81  1576.23
                             1703.12  1765.78  1908.46  2067.94  2140.73
                             2233.05  2344.29  4762.26  4779.46  4805.53
                             5375.30

 Zero-point correction=                           0.072679 (Hartree/Particle)
 Thermal correction to Energy=                    0.076418
 Thermal correction to Enthalpy=                  0.077362
 Thermal correction to Gibbs Free Energy=         0.046408
 Sum of electronic and zero-point Energies=           -225.443174
 Sum of electronic and thermal Energies=              -225.439434
 Sum of electronic and thermal Enthalpies=            -225.438490
 Sum of electronic and thermal Free Energies=         -225.469445

                     E (Thermal)             CV                S
                      KCal/Mol        Cal/Mol-Kelvin    Cal/Mol-Kelvin
 Total                   47.953             13.172             65.149
 Electronic               0.000              0.000              0.000
 Translational            0.889              2.981             38.570
 Rotational               0.889              2.981             24.119
 Vibrational             46.176              7.210              2.460
 Vibration  1             0.865              1.229              0.635

 Optimization completed.
    -- Stationary point found.
 Normal termination of Gaussian 03 at Sat Jan  8 21:46:20 2005.
