 Gaussian 09, Revision B.01,
 Gaussian 09:  EM64L-G09RevB.01 12-Aug-2010

 ------------------------
 #MP3/6-31G(d,p) opt freq
 ------------------------

 -------------------------------------------------------------------
 1hpyraz 1H-Pyrazole casno=288131 state=1 config=1 method=62 basis=4
 -------------------------------------------------------------------
 Symbolic Z-matrix:
 Charge =  0 Multiplicity = 1

 SCF Done:  E(RHF) =  -224.803279527     A.U. after   13 cycles
 E2 =    -0.7301778140D+00 EUMP2 =    -0.22553345734138D+03
 SCF Done:  E(RHF) =  -224.801416718     A.U. after   12 cycles
 E2 =    -0.7347878460D+00 EUMP2 =    -0.22553620456373D+03
 SCF Done:  E(RHF) =  -224.801332360     A.U. after   11 cycles
 E2 =    -0.7350287109D+00 EUMP2 =    -0.22553636107065D+03
 SCF Done:  E(RHF) =  -224.801295703     A.U. after   10 cycles
 E2 =    -0.7351097548D+00 EUMP2 =    -0.22553640545750D+03
 Optimization completed.
    -- Stationary point found.
 Normal termination of Gaussian 09 at Thu Sep  6 14:25:50 2012.

 ----------------------------------------------------------------------
 #N Geom=AllCheck Guess=TCheck SCRF=Check GenChk RMP3(FC)/6-31G(d,p) Fr
 eq
 ----------------------------------------------------------------------

 1hpyraz 1H-Pyrazole casno=288131 state=1 config=1 method=62 basis=4
 -------------------------------------------------------------------
 Redundant internal coordinates taken from checkpoint file:
 /tmp/rdj3/g09-26718/Gau-32531.chk
 Charge =  0 Multiplicity = 1

                         Standard orientation:
 ---------------------------------------------------------------------
 Center     Atomic      Atomic             Coordinates (Angstroms)
 Number     Number       Type             X           Y           Z
 ---------------------------------------------------------------------
      1          1           0        2.098539    0.728577    0.000000
      2          6           0        1.111177    0.305263    0.000000
      3          1           0        1.260646   -1.890901    0.000000
      4          6           0        0.664650   -0.997960    0.000000
      5          1           0       -1.474814   -1.679079    0.000000
      6          6           0       -0.743954   -0.890051    0.000000
      7          7           0       -1.147045    0.379331    0.000000
      8          1           0       -0.046294    2.085684    0.000000
      9          7           0        0.000000    1.085270    0.000000
 ---------------------------------------------------------------------

 SCF Done:  E(RHF) =  -224.801295703     A.U. after    1 cycles
 E2 =    -0.7351097498D+00 EUMP2 =    -0.22553640545250D+03
 SCF Done:  E(RHF) =  -224.801289166     A.U. after    7 cycles
 E2 =    -0.7351186625D+00 EUMP2 =    -0.22553640782823D+03
 SCF Done:  E(RHF) =  -224.801300981     A.U. after    7 cycles
 E2 =    -0.7351008645D+00 EUMP2 =    -0.22553640184548D+03
 SCF Done:  E(RHF) =  -224.801292443     A.U. after    7 cycles
 E2 =    -0.7351140807D+00 EUMP2 =    -0.22553640652390D+03
 SCF Done:  E(RHF) =  -224.801298556     A.U. after    8 cycles
 E2 =    -0.7351054326D+00 EUMP2 =    -0.22553640398886D+03
 SCF Done:  E(RHF) =  -224.801295652     A.U. after    6 cycles
 E2 =    -0.7351097638D+00 EUMP2 =    -0.22553640541543D+03
 E2 =    -0.7351583558D+00 EUMP2 =    -0.22553641250668D+03
 E2 =    -0.7350612750D+00 EUMP2 =    -0.22553639531093D+03
 E2 =    -0.7351196314D+00 EUMP2 =    -0.22553641037265D+03
 E2 =    -0.7350998515D+00 EUMP2 =    -0.22553639790478D+03
 E2 =    -0.7351098642D+00 EUMP2 =    -0.22553640527431D+03
 E2 =    -0.7351154315D+00 EUMP2 =    -0.22553640718266D+03
 E2 =    -0.7351040865D+00 EUMP2 =    -0.22553640315459D+03
 E2 =    -0.7351029176D+00 EUMP2 =    -0.22553640303284D+03
 E2 =    -0.7351165902D+00 EUMP2 =    -0.22553640681431D+03
 E2 =    -0.7351097584D+00 EUMP2 =    -0.22553640541139D+03
 E2 =    -0.7351440416D+00 EUMP2 =    -0.22553642187607D+03
 E2 =    -0.7350755865D+00 EUMP2 =    -0.22553638637825D+03
 E2 =    -0.7350356336D+00 EUMP2 =    -0.22553638322829D+03
 E2 =    -0.7351839517D+00 EUMP2 =    -0.22553642474876D+03
 E2 =    -0.7351098582D+00 EUMP2 =    -0.22553640523181D+03
 E2 =    -0.7350419432D+00 EUMP2 =    -0.22553639015466D+03
 E2 =    -0.7351776547D+00 EUMP2 =    -0.22553641890164D+03
 E2 =    -0.7351775209D+00 EUMP2 =    -0.22553642812894D+03
 E2 =    -0.7350419472D+00 EUMP2 =    -0.22553638060115D+03
 E2 =    -0.7351098130D+00 EUMP2 =    -0.22553640527435D+03
 SCF Done:  E(RHF) =  -224.801296920     A.U. after    7 cycles
 E2 =    -0.7351073091D+00 EUMP2 =    -0.22553640422944D+03
 SCF Done:  E(RHF) =  -224.801294192     A.U. after    8 cycles
 E2 =    -0.7351122403D+00 EUMP2 =    -0.22553640643253D+03
 SCF Done:  E(RHF) =  -224.801276156     A.U. after    7 cycles
 E2 =    -0.7351370266D+00 EUMP2 =    -0.22553641318275D+03
 SCF Done:  E(RHF) =  -224.801313403     A.U. after    7 cycles
 E2 =    -0.7350824585D+00 EUMP2 =    -0.22553639586154D+03
 SCF Done:  E(RHF) =  -224.801295670     A.U. after    6 cycles
 E2 =    -0.7351097570D+00 EUMP2 =    -0.22553640542665D+03
 SCF Done:  E(RHF) =  -224.801294771     A.U. after    9 cycles
 E2 =    -0.7351086056D+00 EUMP2 =    -0.22553640337608D+03
 SCF Done:  E(RHF) =  -224.801294194     A.U. after   10 cycles
 E2 =    -0.7351109058D+00 EUMP2 =    -0.22553640510025D+03
 SCF Done:  E(RHF) =  -224.801278611     A.U. after    8 cycles
 E2 =    -0.7351153798D+00 EUMP2 =    -0.22553639399081D+03
 SCF Done:  E(RHF) =  -224.801308911     A.U. after    9 cycles
 E2 =    -0.7351042449D+00 EUMP2 =    -0.22553641315569D+03
 SCF Done:  E(RHF) =  -224.801295504     A.U. after    7 cycles
 E2 =    -0.7351098055D+00 EUMP2 =    -0.22553640530952D+03

 Alpha  occ. eigenvalues --  -15.64042 -15.58575 -11.27610 -11.24886 -11.21951
 Alpha  occ. eigenvalues --   -1.36891  -1.09181  -1.04676  -0.82071  -0.79557
 Alpha  occ. eigenvalues --   -0.73840  -0.60555  -0.59968  -0.58755  -0.55837
 Alpha  occ. eigenvalues --   -0.45270  -0.35809  -0.34000
 Alpha virt. eigenvalues --    0.17563   0.22702   0.24359   0.28171   0.30395
 Alpha virt. eigenvalues --    0.31549   0.40421   0.41065   0.45500   0.57898
 Alpha virt. eigenvalues --    0.65406   0.73694   0.77414   0.78083   0.82705

 Mulliken atomic charges:
              1
     1  H    0.148213
     2  C    0.091025
     3  H    0.131951
     4  C   -0.229376
     5  H    0.129990
     6  C    0.056662
     7  N   -0.275962
     8  H    0.309890
     9  N   -0.362392
 Sum of Mulliken atomic charges =   0.00000

 Dipole moment (field-independent basis, Debye):
    X=              2.1448    Y=              0.8798    Z=             -0.0011  Tot=              2.3183
 Quadrupole moment (field-independent basis, Debye-Ang):
   XX=            -29.7153   YY=            -22.1175   ZZ=            -31.5853
   XY=              2.4873   XZ=             -0.0002   YZ=             -0.0023

                     1                      2                      3
                    A"                     A"                     A"
 Frequencies --   520.4740               629.0389               700.3206
 Red. masses --     1.9694                 3.1291                 2.5848
 Frc consts  --     0.3143                 0.7295                 0.7469
 IR Inten    --    57.7704                 0.0464                27.1076

                     4                      5                      6
                    A"                     A"                     A"
 Frequencies --   761.3404               832.9921               876.4186
 Red. masses --     1.2042                 1.1566                 1.2168
 Frc consts  --     0.4112                 0.4729                 0.5507
 IR Inten    --    80.5219                 5.9034                13.3019

                     7                      8                      9
                    A'                     A'                     A'
 Frequencies --   937.8512               958.7650              1092.1481
 Red. masses --     5.8200                 4.1921                 1.5463
 Frc consts  --     3.0161                 2.2704                 1.0867
 IR Inten    --     7.8268                 5.2457                19.6374

                    10                     11                     12
                    A'                     A'                     A'
 Frequencies --  1097.0699              1184.4370              1227.1459
 Red. masses --     1.5103                 1.9156                 2.6060
 Frc consts  --     1.0709                 1.5834                 2.3121
 IR Inten    --    18.6794                18.4182                 1.4533

                    13                     14                     15
                    A'                     A'                     A'
 Frequencies --  1329.7256              1445.6919              1496.1977
 Red. masses --     1.7103                 2.5663                 3.8211
 Frc consts  --     1.7817                 3.1602                 5.0399
 IR Inten    --     1.8092                 5.0697                18.5776

                    16                     17                     18
                    A'                     A'                     A'
 Frequencies --  1560.9042              1637.7907              3351.3940
 Red. masses --     2.7172                 3.0753                 1.0931
 Frc consts  --     3.9005                 4.8602                 7.2335
 IR Inten    --     8.7627                 6.0923                 4.7986

                    19                     20                     21
                    A'                     A'                     A'
 Frequencies --  3365.0045              3384.7153              3811.5524
 Red. masses --     1.0941                 1.1076                 1.0817
 Frc consts  --     7.2995                 7.4765                 9.2593
 IR Inten    --     2.2176                 0.5784                89.5351

 - Thermochemistry -
 -------------------
 Temperature   298.150 Kelvin.  Pressure   1.00000 Atm.
 Atom     1 has atomic number  1 and mass   1.00783

 Molecular mass:    68.03745 amu.
 Principal axes and moments of inertia in atomic units:
                           1         2         3
     Eigenvalues --   186.53976 191.30590 377.84566
           X            0.92096   0.38965   0.00000
           Y           -0.38965   0.92096   0.00000
           Z            0.00000   0.00000   1.00000
 This molecule is an asymmetric top.
 Rotational symmetry number  1.
 Rotational temperatures (Kelvin)      0.46432     0.45275     0.22923
 Rotational constants (GHZ):           9.67483     9.43380     4.77640
 Zero-point vibrational energy     192604.6 (Joules/Mol)
                                   46.03361 (Kcal/Mol)
 Warning -- explicit consideration of   1 degrees of freedom as
           vibrations may cause significant error
 Vibrational temperatures:    748.85   905.05  1007.60  1095.40  1198.49
          (Kelvin)           1260.97  1349.36  1379.45  1571.36  1578.44
                             1704.14  1765.59  1913.18  2080.03  2152.69
                             2245.79  2356.41  4821.90  4841.48  4869.84
                             5483.97

 Zero-point correction=                           0.073359 (Hartree/Particle)
 Thermal correction to Energy=                    0.077078
 Thermal correction to Enthalpy=                  0.078023
 Thermal correction to Gibbs Free Energy=         0.047099
 Sum of electronic and zero-point Energies=           -225.477446
 Sum of electronic and thermal Energies=              -225.473727
 Sum of electronic and thermal Enthalpies=            -225.472783
 Sum of electronic and thermal Free Energies=         -225.503706

                     E (Thermal)             CV                S
                      KCal/Mol        Cal/Mol-Kelvin    Cal/Mol-Kelvin
 Total                   48.367             13.067             65.084
 Electronic               0.000              0.000              0.000
 Translational            0.889              2.981             38.570
 Rotational               0.889              2.981             24.115
 Vibrational             46.590              7.106              2.399
 Vibration     1          0.875              1.205              0.609

 Optimization completed.
    -- Stationary point found.
 Normal termination of Gaussian 09 at Thu Sep  6 15:03:29 2012.
