 Gaussian 09, Revision A.02,
 Gaussian 09:  AM64L-G09RevA.02 11-Jun-2009

 ------
 #G3MP2
 ------

 -------------------------------------------------------------------
 1hpyraz 1H-Pyrazole casno=288131 state=1 config=1 method=67 basis=0
 -------------------------------------------------------------------
 Symbolic Z-matrix:
 Charge =  0 Multiplicity = 1

 SCF Done:  E(RHF) =  -224.793493483     A.U. after   13 cycles
 Optimization completed.
    -- Stationary point found.
 Normal termination of Gaussian 09 at Thu Jul  8 15:16:51 2010.

 -------------------------------------------------------
 #N Geom=AllCheck Guess=TCheck SCRF=Check HF/GTBas1 Freq
 -------------------------------------------------------

 1hpyraz 1H-Pyrazole casno=288131 state=1 config=1 method=67 basis=0
 -------------------------------------------------------------------
 Redundant internal coordinates taken from checkpoint file:
 /gaussian/Gau-26636.chk
 Charge =  0 Multiplicity = 1

 SCF Done:  E(RHF) =  -224.793493483     A.U. after    1 cycles

  Exact polarizability:  42.603   1.749  45.889   0.000   0.000  16.813
 Approx polarizability:  41.912   0.731  45.086   0.000   0.000  18.714

                     1                      2                      3
                    A"                     A"                     A"
 Frequencies --   552.1480               690.6249               748.8104
 Red. masses --     1.6491                 2.3592                 2.9339
 Frc consts  --     0.2962                 0.6630                 0.9692
 IR Inten    --    92.0066                 0.0523                25.9133
 Raman Activ --     1.1486                 0.2137                 0.2208

                     4                      5                      6
                    A"                     A"                     A'
 Frequencies --   855.0431               983.5464               999.2903
 Red. masses --     1.1858                 1.2688                 5.7689
 Frc consts  --     0.5108                 0.7232                 3.3941
 IR Inten    --    92.8210                 2.6868                13.8949
 Raman Activ --     0.7314                 0.4221                 4.1762

                     7                      8                      9
                    A'                     A"                     A'
 Frequencies --  1018.4943              1023.5068              1134.8605
 Red. masses --     4.3894                 1.3768                 1.5358
 Frc consts  --     2.6827                 0.8498                 1.1653
 IR Inten    --     6.9764                 2.6449                 0.2074
 Raman Activ --     1.4981                 1.7238                 0.9639

                    10                     11                     12
                    A'                     A'                     A'
 Frequencies --  1145.3721              1234.2485              1285.7156
 Red. masses --     1.7086                 1.9346                 2.5810
 Frc consts  --     1.3207                 1.7364                 2.5138
 IR Inten    --    52.1917                26.6565                 3.2227
 Raman Activ --     1.8855                 7.2364                19.0324

                    13                     14                     15
                    A'                     A'                     A'
 Frequencies --  1410.4457              1547.9161              1550.9453
 Red. masses --     1.6200                 2.6248                 3.3526
 Frc consts  --     1.8988                 3.7054                 4.7514
 IR Inten    --     3.4260                 4.7249                29.7639
 Raman Activ --     8.3518                11.0612                32.9750

                    16                     17                     18
                    A'                     A'                     A'
 Frequencies --  1641.1806              1750.1600              3433.7035
 Red. masses --     2.5250                 3.1049                 1.0937
 Frc consts  --     4.0071                 5.6034                 7.5978
 IR Inten    --    12.9626                11.4155                 8.0313
 Raman Activ --     2.2833                 1.0291                95.4073

                    19                     20                     21
                    A'                     A'                     A'
 Frequencies --  3446.7981              3465.4124              3931.4671
 Red. masses --     1.0959                 1.1083                 1.0829
 Frc consts  --     7.6707                 7.8418                 9.8614
 IR Inten    --     7.6760                 1.5380               105.0915
 Raman Activ --    27.6802               120.4311                80.0717

 - Thermochemistry -
 -------------------
 Temperature   298.150 Kelvin.  Pressure   1.00000 Atm.
 Atom     1 has atomic number  1 and mass   1.00783

 Molecular mass:    68.03745 amu.
 Principal axes and moments of inertia in atomic units:
                           1         2         3
     Eigenvalues --   182.66671 187.19585 369.86256
           X            0.94202   0.33556   0.00000
           Y           -0.33556   0.94202   0.00000
           Z            0.00000   0.00000   1.00000
 This molecule is an asymmetric top.
 Rotational symmetry number  1.
 Rotational temperatures (Kelvin)      0.47416     0.46269     0.23418
 Rotational constants (GHZ):           9.87997     9.64093     4.87949
 Zero-point vibrational energy     202466.1 (Joules/Mol)
                                   48.39056 (Kcal/Mol)
 Warning -- explicit consideration of   1 degrees of freedom as
           vibrations may cause significant error
 Vibrational temperatures:    794.42   993.65  1077.37  1230.21  1415.10
          (Kelvin)           1437.75  1465.38  1472.60  1632.81  1647.93
                             1775.81  1849.86  2029.31  2227.10  2231.46
                             2361.29  2518.09  4940.33  4959.17  4985.95
                             5656.50

 Zero-point correction=                           0.077115 (Hartree/Particle)
 Thermal correction to Energy=                    0.080644
 Thermal correction to Enthalpy=                  0.081588
 Thermal correction to Gibbs Free Energy=         0.050951
 Sum of electronic and zero-point Energies=           -224.716378
 Sum of electronic and thermal Energies=              -224.712850
 Sum of electronic and thermal Enthalpies=            -224.711906
 Sum of electronic and thermal Free Energies=         -224.742543

                     E (Thermal)             CV                S
                      KCal/Mol        Cal/Mol-Kelvin    Cal/Mol-Kelvin
 Total                   50.605             11.868             64.482
 Electronic               0.000              0.000              0.000
 Translational            0.889              2.981             38.570
 Rotational               0.889              2.981             24.051
 Vibrational             48.827              5.906              1.860
 Vibration     1          0.907              1.135              0.540

 Optimization completed.
    -- Stationary point found.
 Normal termination of Gaussian 09 at Thu Jul  8 15:17:14 2010.

 ------------------------------------------------------------------
 #N Geom=AllCheck Guess=TCheck SCRF=Check MP2(Full)/GTBas1 Opt=RCFC
 ------------------------------------------------------------------

 1hpyraz 1H-Pyrazole casno=288131 state=1 config=1 method=67 basis=0
 -------------------------------------------------------------------
 Redundant internal coordinates taken from checkpoint file:
 /gaussian/Gau-26636.chk
 Charge =  0 Multiplicity = 1

 SCF Done:  E(RHF) =  -224.793493483     A.U. after    1 cycles
 E2 =    -0.7284579007D+00 EUMP2 =    -0.22552195138416D+03
 SCF Done:  E(RHF) =  -224.790665153     A.U. after   13 cycles
 E2 =    -0.7346071990D+00 EUMP2 =    -0.22552527235244D+03
 SCF Done:  E(RHF) =  -224.789696800     A.U. after   10 cycles
 E2 =    -0.7356467591D+00 EUMP2 =    -0.22552534355931D+03
 SCF Done:  E(RHF) =  -224.789685859     A.U. after    8 cycles
 E2 =    -0.7356582136D+00 EUMP2 =    -0.22552534407235D+03
 Optimization completed.
    -- Stationary point found.
 Normal termination of Gaussian 09 at Thu Jul  8 15:17:58 2010.

 --------------------------------------------------------------
 #N Geom=AllCheck Guess=TCheck SCRF=Check QCISD(T,FrzG3)/GTBas1
 --------------------------------------------------------------

 1hpyraz 1H-Pyrazole casno=288131 state=1 config=1 method=67 basis=0
 -------------------------------------------------------------------
 Redundant internal coordinates taken from checkpoint file:
 /gaussian/Gau-26636.chk
 Charge =  0 Multiplicity = 1

 SCF Done:  E(RHF) =  -224.789685859     A.U. after    1 cycles
 E2 =    -0.7138403807D+00 EUMP2 =    -0.22550352623945D+03
 Normal termination of Gaussian 09 at Thu Jul  8 15:20:11 2010.

 -------------------------------------------------------------
 #N Geom=AllCheck Guess=TCheck SCRF=Check MP2=FrzG3/GTMP2Large
 -------------------------------------------------------------

 1hpyraz 1H-Pyrazole casno=288131 state=1 config=1 method=67 basis=0
 -------------------------------------------------------------------
 Redundant internal coordinates taken from checkpoint file:
 /gaussian/Gau-26636.chk
 Charge =  0 Multiplicity = 1

                         Standard orientation:
 ---------------------------------------------------------------------
 Center     Atomic      Atomic             Coordinates (Angstroms)
 Number     Number       Type             X           Y           Z
 ---------------------------------------------------------------------
      1          1           0        2.108052    0.733110    0.000000
      2          6           0        1.114701    0.307274    0.000000
      3          1           0        1.263917   -1.896151    0.000000
      4          6           0        0.660895   -0.999917    0.000000
      5          1           0       -1.478317   -1.686230    0.000000
      6          6           0       -0.739366   -0.896312    0.000000
      7          7           0       -1.151434    0.385554    0.000000
      8          1           0       -0.050997    2.094818    0.000000
      9          7           0        0.000000    1.084187    0.000000
 ---------------------------------------------------------------------

 SCF Done:  E(RHF) =  -224.866193167     A.U. after   12 cycles
 E2 =    -0.8808688022D+00 EUMP2 =    -0.22574706196959D+03

 The electronic state is 1-A'.
 Alpha  occ. eigenvalues --  -15.64191 -15.58892 -11.28060 -11.25406 -11.22375
 Alpha  occ. eigenvalues --   -1.37336  -1.09352  -1.05381  -0.82568  -0.79999
 Alpha  occ. eigenvalues --   -0.74364  -0.60880  -0.60675  -0.59320  -0.56473
 Alpha  occ. eigenvalues --   -0.46283  -0.36539  -0.34677
 Alpha virt. eigenvalues --    0.03613   0.04918   0.05686   0.07402   0.11110
 Alpha virt. eigenvalues --    0.11563   0.12459   0.13093   0.14720   0.14945
 Alpha virt. eigenvalues --    0.16582   0.17851   0.18051   0.18628   0.20663

 Mulliken atomic charges:
              1
     1  H    0.133599
     2  C   -0.129259
     3  H    0.104096
     4  C   -0.186270
     5  H    0.147432
     6  C   -0.000735
     7  N   -0.330836
     8  H    0.223030
     9  N    0.038944
 Sum of Mulliken atomic charges =   0.00000

 Dipole moment (field-independent basis, Debye):
    X=              2.3814    Y=              0.7064    Z=              0.0000  Tot=              2.4840
 Quadrupole moment (field-independent basis, Debye-Ang):
   XX=            -30.0236   YY=            -22.2543   ZZ=            -32.9354
   XY=              2.9510   XZ=              0.0000   YZ=              0.0000

 Normal termination of Gaussian 09 at Thu Jul  8 15:24:23 2010.
