 Gaussian 09, Revision B.01,
 Gaussian 09:  EM64L-G09RevB.01 12-Aug-2010

 ----------------------------------------------------
 #B3LYP/aug-cc-pVTZ opt freq integral(grid=ultrafine)
 ----------------------------------------------------

 -------------------------------------------------------------------
 1hpyraz 1H-Pyrazole casno=288131 state=1 config=1 method=2 basis=20
 -------------------------------------------------------------------
 Symbolic Z-matrix:
 Charge =  0 Multiplicity = 1

 SCF Done:  E(RB3LYP) =  -226.287131691     A.U. after   11 cycles
 SCF Done:  E(RB3LYP) =  -226.288381367     A.U. after   10 cycles
 SCF Done:  E(RB3LYP) =  -226.288438463     A.U. after    9 cycles
 SCF Done:  E(RB3LYP) =  -226.288450894     A.U. after    8 cycles
 SCF Done:  E(RB3LYP) =  -226.288451579     A.U. after    7 cycles
 Optimization completed.
    -- Stationary point found.
 Normal termination of Gaussian 09 at Thu Mar  8 15:03:18 2012.

 ----------------------------------------------------------------------
 #N Geom=AllCheck Guess=TCheck SCRF=Check GenChk RB3LYP/Aug-CC-pVTZ Fre
 q
 ----------------------------------------------------------------------

 1hpyraz 1H-Pyrazole casno=288131 state=1 config=1 method=2 basis=20
 -------------------------------------------------------------------
 Redundant internal coordinates taken from checkpoint file:
 /tmp/rdj3/g09-29159/Gau-30378.chk
 Charge =  0 Multiplicity = 1

                         Standard orientation:
 ---------------------------------------------------------------------
 Center     Atomic      Atomic             Coordinates (Angstroms)
 Number     Number       Type             X           Y           Z
 ---------------------------------------------------------------------
      1          1           0        2.098320    0.726919    0.000000
      2          6           0        1.107730    0.306962    0.000000
      3          1           0        1.262332   -1.887614    0.000000
      4          6           0        0.662628   -0.995339    0.000000
      5          1           0       -1.475423   -1.680580    0.000000
      6          6           0       -0.743285   -0.890390    0.000000
      7          7           0       -1.142762    0.375538    0.000000
      8          1           0       -0.048333    2.088275    0.000000
      9          7           0        0.000000    1.085262    0.000000
 ---------------------------------------------------------------------

 SCF Done:  E(RB3LYP) =  -226.288451579     A.U. after    1 cycles

 The electronic state is 1-A'.
 Alpha  occ. eigenvalues --  -14.39768 -14.33858 -10.21620 -10.19430 -10.17334
 Alpha  occ. eigenvalues --   -1.05351  -0.82472  -0.78588  -0.61873  -0.60246
 Alpha  occ. eigenvalues --   -0.55279  -0.45316  -0.44718  -0.43563  -0.40711
 Alpha  occ. eigenvalues --   -0.29944  -0.26954  -0.25892
 Alpha virt. eigenvalues --   -0.01482   0.00030   0.00490   0.01135   0.02826
 Alpha virt. eigenvalues --    0.03670   0.04484   0.04731   0.05787   0.06867
 Alpha virt. eigenvalues --    0.07331   0.07860   0.08102   0.08411   0.09126

 Mulliken atomic charges:
              1
     1  H    0.507386
     2  C   -0.713427
     3  H    0.341045
     4  C    0.004732
     5  H    0.522309
     6  C   -0.412834
     7  N   -0.654622
     8  H    0.077187
     9  N    0.328223
 Sum of Mulliken atomic charges =   0.00000

 Dipole moment (field-independent basis, Debye):
    X=              2.1429    Y=              0.7830    Z=              0.0000  Tot=              2.2815
 Quadrupole moment (field-independent basis, Debye-Ang):
   XX=            -30.3976   YY=            -22.6900   ZZ=            -32.2006
   XY=              2.5972   XZ=              0.0000   YZ=              0.0000

  Exact polarizability:  56.393   1.132  56.479   0.000   0.000  34.264
 Approx polarizability:  89.168   1.488  91.543   0.000   0.000  49.399

                     1                      2                      3
                    A"                     A"                     A"
 Frequencies --   541.0008               640.0490               692.4805
 Red. masses --     1.6462                 2.4324                 2.8559
 Frc consts  --     0.2839                 0.5871                 0.8069
 IR Inten    --    56.3723                 0.1101                18.4200

                     4                      5                      6
                    A"                     A"                     A"
 Frequencies --   762.5244               857.4536               908.1279
 Red. masses --     1.2134                 1.2501                 1.3564
 Frc consts  --     0.4157                 0.5415                 0.6591
 IR Inten    --    94.7688                 7.7082                 4.1964

                     7                      8                      9
                    A'                     A'                     A'
 Frequencies --   924.8884               942.2090              1043.1588
 Red. masses --     5.4962                 4.0935                 1.7891
 Frc consts  --     2.7701                 2.1411                 1.1471
 IR Inten    --     9.3276                 5.0585                37.5101

                    10                     11                     12
                    A'                     A'                     A'
 Frequencies --  1054.7896              1140.3030              1174.4844
 Red. masses --     1.4436                 1.8472                 2.8567
 Frc consts  --     0.9463                 1.4151                 2.3217
 IR Inten    --     5.4750                20.7904                 0.0993

                    13                     14                     15
                    A'                     A'                     A'
 Frequencies --  1279.2037              1382.1398              1419.7296
 Red. masses --     1.9291                 2.3261                 3.3672
 Frc consts  --     1.8599                 2.6181                 3.9988
 IR Inten    --     2.2375                 5.2674                12.2730

                    16                     17                     18
                    A'                     A'                     A'
 Frequencies --  1475.6774              1563.6815              3236.5505
 Red. masses --     2.5812                 2.8568                 1.0935
 Frc consts  --     3.3117                 4.1155                 6.7490
 IR Inten    --     6.7047                 6.4083                 2.7682

                    19                     20                     21
                    A'                     A'                     A'
 Frequencies --  3250.5220              3268.4737              3661.7990
 Red. masses --     1.0935                 1.1060                 1.0817
 Frc consts  --     6.8071                 6.9614                 8.5458
 IR Inten    --     1.1288                 0.3848                83.6316

 - Thermochemistry -
 -------------------
 Temperature   298.150 Kelvin.  Pressure   1.00000 Atm.
 Atom     1 has atomic number  1 and mass   1.00783

 Molecular mass:    68.03745 amu.
 Principal axes and moments of inertia in atomic units:
                           1         2         3
     Eigenvalues --   186.47775 190.11805 376.59580
           X            0.92995   0.36767   0.00000
           Y           -0.36767   0.92995   0.00000
           Z            0.00000   0.00000   1.00000
 This molecule is an asymmetric top.
 Rotational symmetry number  1.
 Rotational temperatures (Kelvin)      0.46447     0.45558     0.22999
 Rotational constants (GHZ):           9.67805     9.49274     4.79225
 Zero-point vibrational energy     186732.6 (Joules/Mol)
                                   44.63015 (Kcal/Mol)
 Warning -- explicit consideration of   1 degrees of freedom as
           vibrations may cause significant error
 Vibrational temperatures:    778.38   920.89   996.32  1097.10  1233.68
          (Kelvin)           1306.59  1330.71  1355.63  1500.87  1517.61
                             1640.64  1689.82  1840.49  1988.59  2042.67
                             2123.17  2249.79  4656.67  4676.77  4702.60
                             5268.51

 Zero-point correction=                           0.071123 (Hartree/Particle)
 Thermal correction to Energy=                    0.074843
 Thermal correction to Enthalpy=                  0.075788
 Thermal correction to Gibbs Free Energy=         0.044874
 Sum of electronic and zero-point Energies=           -226.217329
 Sum of electronic and thermal Energies=              -226.213608
 Sum of electronic and thermal Enthalpies=            -226.212664
 Sum of electronic and thermal Free Energies=         -226.243578

                     E (Thermal)             CV                S
                      KCal/Mol        Cal/Mol-Kelvin    Cal/Mol-Kelvin
 Total                   46.965             13.223             65.064
 Electronic               0.000              0.000              0.000
 Translational            0.889              2.981             38.570
 Rotational               0.889              2.981             24.105
 Vibrational             45.188              7.262              2.389
 Vibration     1          0.896              1.159              0.563

 Optimization completed.
    -- Stationary point found.
 Normal termination of Gaussian 09 at Thu Mar  8 15:32:01 2012.
