 Gaussian 03, Revision C.02,
 Gaussian 03:  AM64L-G03RevC.02 12-Jun-2004

 ------------------------------------------------
 #PBEPBE/6-31G* opt freq integral(grid=ultrafine)
 ------------------------------------------------

 --------------------------------------
 1hpyraz casno=288131 method=69 basis=1
 --------------------------------------
 Symbolic Z-matrix:
 Charge =  0 Multiplicity = 1

 SCF Done:  E(RPBE-PBE) =  -225.925150871     A.U. after   15 cycles
 SCF Done:  E(RPBE-PBE) =  -225.929790547     A.U. after   12 cycles
 SCF Done:  E(RPBE-PBE) =  -225.929910807     A.U. after   10 cycles
 SCF Done:  E(RPBE-PBE) =  -225.929927867     A.U. after    9 cycles
 SCF Done:  E(RPBE-PBE) =  -225.929929822     A.U. after    8 cycles
 Optimization completed.
    -- Stationary point found.
 Normal termination of Gaussian 03 at Fri Feb 17 07:18:02 2006.

 -------------------------------------------------------------------
 #P Geom=AllCheck Guess=Read SCRF=Check GenChk RPBEPBE/6-31G(d) Freq
 -------------------------------------------------------------------

 1hpyraz casno=288131 method=69 basis=1
 --------------------------------------
 Redundant internal coordinates taken from checkpoint file:
 /scratch/Gau-17444.chk
 Charge =  0 Multiplicity = 1

                         Standard orientation:
 ---------------------------------------------------------------------
 Center     Atomic     Atomic              Coordinates (Angstroms)
 Number     Number      Type              X           Y           Z
 ---------------------------------------------------------------------
    1          1             0        2.120145    0.737676    0.000000
    2          6             0        1.119512    0.308351    0.000000
    3          1             0        1.273946   -1.909239    0.000000
    4          6             0        0.667059   -1.005935    0.000000
    5          1             0       -1.489256   -1.692316    0.000000
    6          6             0       -0.745456   -0.895114    0.000000
    7          7             0       -1.157433    0.384790    0.000000
    8          1             0       -0.049492    2.104172    0.000000
    9          7             0        0.000000    1.088909    0.000000
 ---------------------------------------------------------------------

 SCF Done:  E(RPBE-PBE) =  -225.929929822     A.U. after    1 cycles

 The electronic state is 1-A'.
 Alpha  occ. eigenvalues --  -14.07605 -14.01092  -9.93229  -9.90926  -9.89277
 Alpha  occ. eigenvalues --   -0.94955  -0.73397  -0.69848  -0.54622  -0.52914
 Alpha  occ. eigenvalues --   -0.48261  -0.38867  -0.37925  -0.37457  -0.34384
 Alpha  occ. eigenvalues --   -0.23604  -0.21898  -0.21078
 Alpha virt. eigenvalues --   -0.00719   0.04142   0.05189   0.10513   0.12973
 Alpha virt. eigenvalues --    0.14099   0.18107   0.19597   0.25800   0.36146
 Alpha virt. eigenvalues --    0.38388   0.49608   0.51177   0.51957   0.54950

 Mulliken atomic charges:
              1
     1  H    0.162898
     2  C    0.062770
     3  H    0.142549
     4  C   -0.236930
     5  H    0.148446
     6  C    0.024034
     7  N   -0.264238
     8  H    0.344678
     9  N   -0.384206
 Sum of Mulliken charges=   0.00000

 Dipole moment (field-independent basis, Debye):
    X=     2.0327    Y=     0.9540    Z=     0.0000  Tot=     2.2454
 Quadrupole moment (field-independent basis, Debye-Ang):
   XX=   -29.1858   YY=   -21.7155   ZZ=   -31.2908
   XY=     2.3408   XZ=     0.0000   YZ=     0.0000

  Exact polarizability:  47.769   1.887  48.798   0.000   0.000  17.364
 Approx polarizability:  98.364   0.878  98.793   0.000   0.000  28.225

                     1                      2                      3
                    A"                     A"                     A"
 Frequencies --   484.5492               618.3390               676.2354
 Red. masses --     1.7070                 2.8493                 2.9946
 Frc consts  --     0.2361                 0.6419                 0.8068
 IR Inten    --    52.8044                 0.0890                21.6335

                     4                      5                      6
                    A"                     A"                     A"
 Frequencies --   716.3487               790.1459               844.1394
 Red. masses --     1.2193                 1.1724                 1.2732
 Frc consts  --     0.3687                 0.4313                 0.5345
 IR Inten    --    68.4566                18.3094                 5.7097

                     7                      8                      9
                    A'                     A'                     A'
 Frequencies --   889.5819               911.6739              1029.2928
 Red. masses --     5.5343                 3.8138                 1.6197
 Frc consts  --     2.5804                 1.8676                 1.0110
 IR Inten    --     8.0482                 5.0941                31.5467

                    10                     11                     12
                    A'                     A'                     A'
 Frequencies --  1038.6489              1132.3914              1160.4608
 Red. masses --     1.4070                 1.7096                 3.2473
 Frc consts  --     0.8943                 1.2916                 2.5765
 IR Inten    --    10.8666                14.3297                 0.6956

                    13                     14                     15
                    A'                     A'                     A'
 Frequencies --  1254.1404              1349.6937              1412.0080
 Red. masses --     1.7697                 2.6194                 4.1891
 Frc consts  --     1.6400                 2.8114                 4.9209
 IR Inten    --     3.3795                 3.3186                10.3807

                    16                     17                     18
                    A'                     A'                     A'
 Frequencies --  1459.2389              1534.2659              3190.9494
 Red. masses --     2.7269                 2.9974                 1.0918
 Frc consts  --     3.4211                 4.1571                 6.5496
 IR Inten    --     5.3884                 5.4404                 4.5999

                    19                     20                     21
                    A'                     A'                     A'
 Frequencies --  3204.0418              3222.6493              3579.0741
 Red. masses --     1.0932                 1.1063                 1.0811
 Frc consts  --     6.6122                 6.7691                 8.1596
 IR Inten    --     3.3409                 1.4353                54.1633

 - Thermochemistry -
 -------------------
 Temperature   298.150 Kelvin.  Pressure   1.00000 Atm.
 Atom  1 has atomic number  1 and mass   1.00783

 Molecular mass:    68.03745 amu.
 Principal axes and moments of inertia in atomic units:
                           1         2         3
     EIGENVALUES --   188.88061 194.28907 383.16968
           X            0.91522   0.40297   0.00000
           Y           -0.40297   0.91522   0.00000
           Z            0.00000   0.00000   1.00000
 This molecule is an asymmetric top.
 Rotational symmetry number  1.
 Rotational temperatures (Kelvin)      0.45856     0.44580     0.22605
 Rotational constants (GHZ):           9.55493     9.28895     4.71003
 Zero-point vibrational energy     182417.8 (Joules/Mol)
                                   43.59889 (Kcal/Mol)
 Warning -- explicit consideration of   2 degrees of freedom as
           vibrations may cause significant error
 Vibrational temperatures:    697.16   889.65   972.95  1030.66  1136.84
          (Kelvin)           1214.53  1279.91  1311.69  1480.92  1494.38
                             1629.26  1669.64  1804.43  1941.91  2031.56
                             2099.52  2207.46  4591.06  4609.90  4636.67
                             5149.48

 Zero-point correction=                           0.069479 (Hartree/Particle)
 Thermal correction to Energy=                    0.073328
 Thermal correction to Enthalpy=                  0.074272
 Thermal correction to Gibbs Free Energy=         0.043152
 Sum of electronic and zero-point Energies=           -225.860451
 Sum of electronic and thermal Energies=              -225.856602
 Sum of electronic and thermal Enthalpies=            -225.855657
 Sum of electronic and thermal Free Energies=         -225.886778

                     E (Thermal)             CV                S
                      KCal/Mol        Cal/Mol-Kelvin    Cal/Mol-Kelvin
 Total                   46.014             13.880             65.498
 Electronic               0.000              0.000              0.000
 Translational            0.889              2.981             38.570
 Rotational               0.889              2.981             24.157
 Vibrational             44.237              7.918              2.771
 Vibration  1             0.841              1.284              0.698
 Vibration  2             0.978              0.993              0.419

 Optimization completed.
    -- Stationary point found.
 Normal termination of Gaussian 03 at Fri Feb 17 07:23:37 2006.
