 Gaussian 98, Revision A.4,
 Gaussian 98:  IBM-RS6000-G98RevA.4 11-Sep-1998

 --------------------
 #CCD/6-31G* OPT FREQ
 --------------------

 -------------------------------
 1H pyrazole C3H4N2 casno=288131
 -------------------------------
 Symbolic Z-matrix:
 Charge =  0 Multiplicity = 1

 SCF Done:  E(RHF) =  -224.793493484     A.U. after   15 cycles
 SCF Done:  E(RHF) =  -224.791035734     A.U. after   13 cycles
 SCF Done:  E(RHF) =  -224.790986253     A.U. after   11 cycles
 SCF Done:  E(RHF) =  -224.790945881     A.U. after   10 cycles
 SCF Done:  E(RHF) =  -224.790955481     A.U. after    8 cycles
 Optimization completed.
    -- Stationary point found.
 Normal termination of Gaussian 98.

 ----------------------------------------------------
 #N Geom=AllCheck Guess=TCheck RCCD(FC)/6-31G(d) Freq
 ----------------------------------------------------

 1H pyrazole C3H4N2 casno=288131
 -------------------------------
 Redundant internal coordinates taken from checkpointfile:
 /wrk/rdj3/Gau-11004.chk
 Charge =  0 Multiplicity = 1

                         Standard orientation:
 ---------------------------------------------------------------------
 Center     Atomic     Atomic              Coordinates (Angstroms)
 Number     Number      Type              X           Y           Z
 ---------------------------------------------------------------------
    1          1             0        2.106640    0.731331    0.000000
    2          6             0        1.111783    0.305298    0.000000
    3          1             0        1.265454   -1.897833    0.000000
    4          6             0        0.664830   -0.998346    0.000000
    5          1             0       -1.482340   -1.683507    0.000000
    6          6             0       -0.744420   -0.890266    0.000000
    7          7             0       -1.147453    0.380195    0.000000
    8          1             0       -0.050736    2.093441    0.000000
    9          7             0        0.000000    1.085013    0.000000
 ---------------------------------------------------------------------

 SCF Done:  E(RHF) =  -224.790955481     A.U. after    1 cycles
 SCF Done:  E(RHF) =  -224.790937738     A.U. after    7 cycles
 SCF Done:  E(RHF) =  -224.790972006     A.U. after    7 cycles
 SCF Done:  E(RHF) =  -224.790947905     A.U. after    7 cycles
 SCF Done:  E(RHF) =  -224.790962651     A.U. after    7 cycles
 SCF Done:  E(RHF) =  -224.790957964     A.U. after    8 cycles
 SCF Done:  E(RHF) =  -224.790952693     A.U. after    8 cycles
 SCF Done:  E(RHF) =  -224.790923438     A.U. after    7 cycles
 SCF Done:  E(RHF) =  -224.790985765     A.U. after    7 cycles
 SCF Done:  E(RHF) =  -224.790955443     A.U. after    7 cycles
 SCF Done:  E(RHF) =  -224.790954385     A.U. after    9 cycles
 SCF Done:  E(RHF) =  -224.790954131     A.U. after    9 cycles
 SCF Done:  E(RHF) =  -224.790950589     A.U. after    9 cycles
 SCF Done:  E(RHF) =  -224.790956573     A.U. after    9 cycles
 SCF Done:  E(RHF) =  -224.790955282     A.U. after    7 cycles

  The electronic state is 1-A'.
 Alpha  occ. eigenvalues --  -15.64146 -15.58598 -11.27738 -11.24991 -11.22074
 Alpha  occ. eigenvalues --   -1.36904  -1.09072  -1.04651  -0.81893  -0.79446
 Alpha  occ. eigenvalues --   -0.73736  -0.60466  -0.59975  -0.58690  -0.55814
 Alpha  occ. eigenvalues --   -0.45304  -0.35778  -0.34011
 Alpha virt. eigenvalues --    0.17655   0.22464   0.24457   0.27974   0.30272
 Alpha virt. eigenvalues --    0.31421   0.40453   0.41103   0.45598   0.57994
 Alpha virt. eigenvalues --    0.65476   0.74126   0.77401   0.78213   0.82698

                     1                      2                      3
                    A"                     A"                     A"
 Frequencies --   509.5097               631.0283               699.7539
 Red. masses --     1.8566                 3.0311                 2.7110
 Frc consts  --     0.2840                 0.7111                 0.7821
 IR Inten    --    63.9973                 0.0121                22.6864
 Raman Activ --     0.0000                 0.0000                 0.0000

                     4                      5                      6
                    A"                     A"                     A"
 Frequencies --   752.7485               817.6988               864.3124
 Red. masses --     1.2146                 1.1650                 1.2344
 Frc consts  --     0.4055                 0.4589                 0.5433
 IR Inten    --    89.7599                 6.5580                14.4590
 Raman Activ --     0.0000                 0.0000                 0.0000

                     7                      8                      9
                    A'                     A'                     A'
 Frequencies --   935.8551               955.7674              1087.0798
 Red. masses --     5.7542                 4.0978                 1.4862
 Frc consts  --     2.9693                 2.2055                 1.0348
 IR Inten    --     8.2118                 4.7759                17.0405
 Raman Activ --     0.0000                 0.0000                 0.0000

                    10                     11                     12
                    A'                     A'                     A'
 Frequencies --  1092.1636              1180.7188              1225.6723
 Red. masses --     1.5017                 1.9148                 2.6098
 Frc consts  --     1.0554                 1.5728                 2.3100
 IR Inten    --    23.1673                19.0686                 1.6031
 Raman Activ --     0.0000                 0.0000                 0.0000

                    13                     14                     15
                    A'                     A'                     A'
 Frequencies --  1324.0143              1432.7232              1483.7205
 Red. masses --     1.6298                 2.7984                 3.9483
 Frc consts  --     1.6833                 3.3844                 5.1211
 IR Inten    --     2.4888                 4.7460                18.9351
 Raman Activ --     0.0000                 0.0000                 0.0000

                    16                     17                     18
                    A'                     A'                     A'
 Frequencies --  1548.0941              1623.9640              3283.5062
 Red. masses --     2.7678                 3.2440                 1.0934
 Frc consts  --     3.9083                 5.0406                 6.9453
 IR Inten    --     9.5545                 6.6658                 4.3360
 Raman Activ --     0.0000                 0.0000                 0.0000

                    19                     20                     21
                    A'                     A'                     A'
 Frequencies --  3295.6860              3314.4831              3704.5919
 Red. masses --     1.0952                 1.1088                 1.0823
 Frc consts  --     7.0087                 7.1769                 8.7510
 IR Inten    --     2.5757                 0.5535                85.4529
 Raman Activ --     0.0000                 0.0000                 0.0000

 - Thermochemistry -
 -------------------
 Temperature   298.150 Kelvin.  Pressure   1.00000 Atm.
 Atom  1 has atomic number  1 and mass   1.00783

 Molecular mass:    68.03745 amu.
 Principal axes and moments of inertia in atomic units:
                           1         2         3
     EIGENVALUES --   186.86186 191.71049 378.57235
           X            0.92098   0.38960   0.00000
           Y           -0.38960   0.92098   0.00000
           Z            0.00000   0.00000   1.00000
 THIS MOLECULE IS AN ASYMMETRIC TOP.
 ROTATIONAL SYMMETRY NUMBER  1.
 ROTATIONAL TEMPERATURES (KELVIN)      0.46352     0.45179     0.22879
 ROTATIONAL CONSTANTS (GHZ)            9.65816     9.41389     4.76723
 Zero-point vibrational energy     189985.5 (Joules/Mol)
                                   45.40763 (Kcal/Mol)
 WARNING-- EXPLICIT CONSIDERATION OF   1 DEGREES OF FREEDOM AS
           VIBRATIONS MAY CAUSE SIGNIFICANT ERROR
 VIBRATIONAL TEMPERATURES:    733.07   907.90  1006.78  1083.03  1176.48
          (KELVIN)           1243.55  1346.48  1375.13  1564.06  1571.37
                             1698.78  1763.46  1904.95  2061.36  2134.73
                             2227.35  2336.51  4724.21  4741.73  4768.77
                             5330.05

 Zero-point correction=                           0.072362 (Hartree/Particle)
 Thermal correction to Energy=                    0.076101
 Thermal correction to Enthalpy=                  0.077045
 Thermal correction to Gibbs Free Energy=         0.046091
 Sum of electronic and zero-point Energies=           -225.445062
 Sum of electronic and thermal Energies=              -225.441323
 Sum of electronic and thermal Enthalpies=            -225.440378
 Sum of electronic and thermal Free Energies=         -225.471333

                     E (Thermal)             CV                S
                      KCAL/MOL        CAL/MOL-KELVIN    CAL/MOL-KELVIN
 TOTAL                   47.754             13.179             65.149
 ELECTRONIC               0.000              0.000              0.000
 TRANSLATIONAL            0.889              2.981             38.570
 ROTATIONAL               0.889              2.981             24.121
 VIBRATIONAL             45.977              7.218              2.458
 VIBRATION  1             0.865              1.229              0.635
                       Q            LOG10(Q)             LN(Q)
 TOTAL BOT       0.630872D-21        -21.200059        -48.814940
 TOTAL V=0       0.121274D+13         12.083767         27.823901
 VIB (BOT)       0.686043D-33        -33.163649        -76.362123
 VIB (BOT)  1    0.319841D+00         -0.495066         -1.139932
 VIB (V=0)       0.131880D+01          0.120177          0.276719
 VIB (V=0)  1    0.109355D+01          0.038837          0.089427
 ELECTRONIC      0.100000D+01          0.000000          0.000000
 TRANSLATIONAL   0.220588D+08          7.343582         16.909224
 ROTATIONAL      0.416876D+05          4.620007         10.637959
 ***** Axes restored to original set *****
 -------------------------------------------------------------------
 Center     Atomic                   Forces (Hartrees/Bohr)
 Number     Number              X              Y              Z
 -------------------------------------------------------------------
    1          1          -0.000001220    0.000000000   -0.000023802
    2          6          -0.000061374    0.000000000    0.000105841
    3          1          -0.000017998    0.000000000   -0.000000715
    4          6           0.000039928    0.000000000   -0.000044240
    5          1           0.000010075    0.000000000    0.000011324
    6          6           0.000043671    0.000000000    0.000035760
    7          7          -0.000086705    0.000000000   -0.000072394
    8          1          -0.000022280    0.000000000    0.000000577
    9          7           0.000095903    0.000000000   -0.000012350
 -------------------------------------------------------------------
 Cartesian Forces:  Max     0.000105841 RMS     0.000041021

 GradGradGradGradGradGradGradGradGradGradGradGradGradGradGradGradGradGrad
 Berny optimization.
 Internal  Forces:  Max     0.000070107 RMS     0.000022753
 Search for a local minimum.
 Step number   1 out of a maximum of  48
 All quantities printed in internal units (Hartrees-Bohrs-Radians)
 Second derivative matrix not updated -- analytic derivatives used.
     Eigenvalues ---    0.00676   0.01053   0.01590   0.02782   0.05769
     Eigenvalues ---    0.06146   0.09950   0.10956   0.11678   0.12491
     Eigenvalues ---    0.23544   0.28074   0.36759   0.37898   0.38263
     Eigenvalues ---    0.38571   0.42612   0.44974   0.48822   0.52707
     Eigenvalues ---    0.593411000.000001000.000001000.000001000.00000
     Eigenvalues --- 1000.000001000.000001000.000001000.000001000.00000
     Eigenvalues --- 1000.000001000.000001000.000001000.000001000.00000
     Eigenvalues --- 1000.000001000.000001000.00000
 Angle between quadratic step and forces=  34.28 degrees.
 Linear search not attempted -- first point.
 Iteration  1 RMS(Cart)=  0.00010842 RMS(Int)=  0.00000001
 Iteration  2 RMS(Cart)=  0.00000001 RMS(Int)=  0.00000000
 Variable       Old X    -DE/DX   Delta X   Delta X   Delta X     New X
                                 (Linear)    (Quad)   (Total)
    R1        2.04514   0.00001   0.00000   0.00003   0.00003   2.04517
    R2        2.60430   0.00006   0.00000   0.00013   0.00013   2.60443
    R3        2.56614  -0.00005   0.00000  -0.00012  -0.00012   2.56602
    R4        2.04390   0.00000   0.00000  -0.00001  -0.00001   2.04389
    R5        2.67092   0.00003   0.00000   0.00008   0.00008   2.67100
    R6        2.04733   0.00001   0.00000   0.00002   0.00002   2.04735
    R7        2.51873  -0.00001   0.00000   0.00000   0.00000   2.51873
    R8        2.54476  -0.00007   0.00000  -0.00022  -0.00022   2.54455
    R9        1.90806   0.00002   0.00000   0.00004   0.00004   1.90810
    A1        2.30569  -0.00002   0.00000  -0.00022  -0.00022   2.30547
    A2        2.12537   0.00002   0.00000   0.00023   0.00023   2.12560
    A3        1.85212   0.00000   0.00000   0.00000   0.00000   1.85211
    A4        2.22256  -0.00001   0.00000  -0.00018  -0.00018   2.22237
    A5        1.82454  -0.00001   0.00000  -0.00003  -0.00003   1.82452
    A6        2.23609   0.00003   0.00000   0.00021   0.00021   2.23630
    A7        2.24354   0.00003   0.00000   0.00018   0.00018   2.24371
    A8        1.95453  -0.00004   0.00000  -0.00013  -0.00013   1.95440
    A9        2.08512   0.00001   0.00000  -0.00005  -0.00005   2.08507
   A10        1.81443   0.00005   0.00000   0.00014   0.00014   1.81457
   A11        1.97915   0.00001   0.00000   0.00002   0.00002   1.97918
   A12        2.23268  -0.00002   0.00000  -0.00013  -0.00013   2.23255
   A13        2.07136   0.00001   0.00000   0.00010   0.00010   2.07146
    D1        0.00000   0.00000   0.00000   0.00000   0.00000   0.00000
    D2        3.14159   0.00000   0.00000   0.00000   0.00000   3.14159
    D3        3.14159   0.00000   0.00000   0.00000   0.00000   3.14159
    D4        0.00000   0.00000   0.00000   0.00000   0.00000   0.00000
    D5        3.14159   0.00000   0.00000   0.00000   0.00000   3.14159
    D6        0.00000   0.00000   0.00000   0.00000   0.00000   0.00000
    D7        0.00000   0.00000   0.00000   0.00000   0.00000   0.00000
    D8        3.14159   0.00000   0.00000   0.00000   0.00000   3.14159
    D9        3.14159   0.00000   0.00000   0.00000   0.00000   3.14159
   D10        0.00000   0.00000   0.00000   0.00000   0.00000   0.00000
   D11        0.00000   0.00000   0.00000   0.00000   0.00000   0.00000
   D12        3.14159   0.00000   0.00000   0.00000   0.00000   3.14159
   D13        0.00000   0.00000   0.00000   0.00000   0.00000   0.00000
   D14        3.14159   0.00000   0.00000   0.00000   0.00000   3.14159
   D15        0.00000   0.00000   0.00000   0.00000   0.00000   0.00000
   D16        3.14159   0.00000   0.00000   0.00000   0.00000   3.14159
         Item               Value     Threshold  Converged?
 Maximum Force            0.000070     0.000450     YES
 RMS     Force            0.000023     0.000300     YES
 Maximum Displacement     0.000425     0.001800     YES
 RMS     Displacement     0.000108     0.001200     YES
 Predicted change in Energy=-3.497414D-08
 Optimization completed.
    -- Stationary point found.
                         ----------------------------
                         !   Optimized Parameters   !
                         ! (Angstroms and Degrees)  !
 ------------------------                            -------------------------
 ! Name  Definition              Value          Derivative Info.             !
 -----------------------------------------------------------------------------
 ! R1    R(1,2)                  1.0822         -DE/DX =    0.               !
 ! R2    R(2,4)                  1.3781         -DE/DX =    0.0001           !
 ! R3    R(2,9)                  1.3579         -DE/DX =   -0.0001           !
 ! R4    R(3,4)                  1.0816         -DE/DX =    0.               !
 ! R5    R(4,6)                  1.4134         -DE/DX =    0.               !
 ! R6    R(5,6)                  1.0834         -DE/DX =    0.               !
 ! R7    R(6,7)                  1.3329         -DE/DX =    0.               !
 ! R8    R(7,9)                  1.3466         -DE/DX =   -0.0001           !
 ! R9    R(8,9)                  1.0097         -DE/DX =    0.               !
 ! A1    A(1,2,4)              132.1065         -DE/DX =    0.               !
 ! A2    A(1,2,9)              121.775          -DE/DX =    0.               !
 ! A3    A(4,2,9)              106.1185         -DE/DX =    0.               !
 ! A4    A(2,4,3)              127.3431         -DE/DX =    0.               !
 ! A5    A(2,4,6)              104.5386         -DE/DX =    0.               !
 ! A6    A(3,4,6)              128.1183         -DE/DX =    0.               !
 ! A7    A(4,6,5)              128.5452         -DE/DX =    0.               !
 ! A8    A(4,6,7)              111.9864         -DE/DX =    0.               !
 ! A9    A(5,6,7)              119.4685         -DE/DX =    0.               !
 ! A10   A(6,7,9)              103.9594         -DE/DX =    0.               !
 ! A11   A(2,9,7)              113.3971         -DE/DX =    0.               !
 ! A12   A(2,9,8)              127.923          -DE/DX =    0.               !
 ! A13   A(7,9,8)              118.6799         -DE/DX =    0.               !
 ! D1    D(1,2,4,3)              0.             -DE/DX =    0.               !
 ! D2    D(1,2,4,6)            180.             -DE/DX =    0.               !
 ! D3    D(9,2,4,3)            180.             -DE/DX =    0.               !
 ! D4    D(9,2,4,6)              0.             -DE/DX =    0.               !
 ! D5    D(1,2,9,7)            180.             -DE/DX =    0.               !
 ! D6    D(1,2,9,8)              0.             -DE/DX =    0.               !
 ! D7    D(4,2,9,7)              0.             -DE/DX =    0.               !
 ! D8    D(4,2,9,8)            180.             -DE/DX =    0.               !
 ! D9    D(2,4,6,5)            180.             -DE/DX =    0.               !
 ! D10   D(2,4,6,7)              0.             -DE/DX =    0.               !
 ! D11   D(3,4,6,5)              0.             -DE/DX =    0.               !
 ! D12   D(3,4,6,7)            180.             -DE/DX =    0.               !
 ! D13   D(4,6,7,9)              0.             -DE/DX =    0.               !
 ! D14   D(5,6,7,9)            180.             -DE/DX =    0.               !
 ! D15   D(6,7,9,2)              0.             -DE/DX =    0.               !
 ! D16   D(6,7,9,8)            180.             -DE/DX =    0.               !
 -----------------------------------------------------------------------------
 GradGradGradGradGradGradGradGradGradGradGradGradGradGradGradGradGradGrad

 1\1\GINC-PLUMBUM\Freq\RCCD-FC\6-31G(d)\C3H4N2\RDJ3\03-Feb-1999\0\\#N G
 EOM=ALLCHECK GUESS=TCHECK RCCD(FC)/6-31G(D) FREQ\\1H pyrazole C3H4N2 c
 asno=288131\\0,1\H,-1.894991039,0.,-1.1754938266\C,-0.9374362342,0.,-0
 .6711787951\H,0.6768721461,0.,-2.1782994155\C,0.3566048068,0.,-1.14521
 89276\H,2.2412668463,0.,0.0908357435\C,1.1603590977,0.,0.0173839625\N,
 0.4275029046,0.,1.1306797688\H,-1.5939538727,0.,1.3580789601\N,-0.8426
 972049,0.,0.6834575311\\Version=IBM-RS6000-G98RevA.4\State=1-A'\HF=-22
 4.7909555\MP2=-225.5032544\MP3=-225.5158396\MP4D=-225.5341689\MP4DQ=-2
 25.5163046\CCD=-225.5174236\RMSD=2.143e-09\RMSF=4.102e-05\Dipole=-0.80
 37466,0.,-0.4500934\DipoleDeriv=-0.0066804,0.,-0.0460247,0.,0.1806402,
 0.,-0.0341927,0.,0.0746982,0.1600099,0.,-0.1072072,0.,-0.0712311,0.,-0
 .3022625,0.,0.2634227,0.0931733,0.,0.0293696,0.,0.1673817,0.,0.0339048
 ,0.,-0.0268379,-0.3010481,0.,0.009924,0.,-0.2207492,0.,-0.0826554,0.,-
 0.0095237,-0.0529128,0.,-0.0115538,0.,0.1407996,0.,-0.0258058,0.,0.077
 5925,0.2475803,0.,0.1108629,0.,-0.0554142,0.,0.2560314,0.,0.1312216,0.
 0573179,0.,-0.1665577,0.,-0.2361332,0.,-0.0949856,0.,-0.5073275,0.2190
 813,0.,-0.0458032,0.,0.3392494,0.,-0.0364605,0.,0.2275868,-0.4172799,0
 .,0.2268866,0.,-0.244609,0.,0.2865697,0.,-0.2306938\PG=CS [SG(C3H4N2)]
 \NImag=0\\0.30990550,0.,0.01986047,0.13607386,0.,0.12590262,-0.3052075
 4,0.,-0.11678677,0.89535273,0.,-0.02259086,0.,0.,0.10814654,-0.1269656
 5,0.,-0.12414893,0.09069669,0.,0.68870321,0.00026434,0.,-0.00070467,0.
 00244006,0.,0.02690650,0.07943566,0.,-0.00222480,0.,0.,-0.00431170,0.,
 0.,0.02087477,0.00043339,0.,-0.00013352,-0.00353291,0.,0.00015783,-0.0
 9484671,0.,0.35335465,-0.00710704,0.,0.00948513,-0.37051817,0.,0.08467
 117,-0.08710792,0.,0.08826031,0.65953861,0.,-0.00111566,0.,0.,-0.05377
 265,0.,0.,-0.02226796,0.,0.,0.10276435,-0.01566087,0.,0.01346973,0.110
 70610,0.,-0.15387657,0.08596382,0.,-0.34092054,-0.12565666,0.,0.859983
 32,-0.00022588,0.,0.00031346,-0.00083258,0.,-0.00134811,-0.00013950,0.
 ,-0.00038255,-0.00467694,0.,0.00406781,0.37790934,0.,0.00081046,0.,0.,
 0.00514451,0.,0.,-0.00125073,0.,0.,-0.00137291,0.,0.,0.02403216,-0.001
 11675,0.,0.00114225,-0.00312440,0.,-0.00629750,0.00077348,0.,0.0001426
 0,-0.02273312,0.,0.00736889,0.02137705,0.,0.05879616,-0.00478924,0.,0.
 00477465,-0.05476502,0.,0.00012988,0.01385899,0.,0.01262239,-0.1902835
 5,0.,-0.11111139,-0.35831611,0.,-0.03307556,0.91079146,0.,0.00571951,0
 .,0.,0.00646654,0.,0.,-0.00538676,0.,0.,-0.05648103,0.,0.,-0.02831956,
 0.,0.,0.13149474,0.00130549,0.,-0.00209954,-0.07393259,0.,0.03926720,-
 0.01605526,0.,-0.00904210,-0.07462919,0.,-0.24568897,-0.02390510,0.,-0
 .06425997,-0.01230774,0.,0.64188059,0.00086223,0.,0.00046230,-0.063785
 35,0.,-0.03998728,-0.00230530,0.,-0.00150565,0.03579288,0.,0.03923469,
 -0.01292168,0.,0.02969457,-0.19493893,0.,0.15000433,0.54649208,0.,0.00
 677484,0.,0.,0.01695229,0.,0.,0.00686390,0.,0.,0.01908893,0.,0.,-0.008
 48339,0.,0.,-0.07087589,0.,0.,0.10509544,0.00214844,0.,-0.00592673,-0.
 01855978,0.,-0.06581737,-0.00622365,0.,-0.00415434,-0.03350426,0.,-0.0
 7868344,-0.00268908,0.,0.00712431,0.11487255,0.,-0.32391839,-0.0438492
 4,0.,0.59125376,-0.00026841,0.,0.00036386,0.01042704,0.,-0.00443034,0.
 00074823,0.,-0.00005782,0.00253426,0.,-0.00303594,-0.00047059,0.,0.001
 51713,-0.00792003,0.,-0.00646210,-0.02127815,0.,0.02636135,0.29987960,
 0.,-0.00122947,0.,0.,-0.00958300,0.,0.,0.00242053,0.,0.,0.00342852,0.,
 0.,0.00230781,0.,0.,0.00465104,0.,0.,-0.01341537,0.,0.,0.01247614,-0.0
 0064571,0.,0.00001723,0.02631077,0.,-0.00591557,0.00131081,0.,0.000168
 00,-0.00299229,0.,-0.00748999,-0.00051894,0.,0.00102678,-0.00593060,0.
 ,0.00134022,-0.01203009,0.,0.01653437,-0.20819960,0.,0.25683994,0.0065
 5445,0.,-0.03398503,-0.11311181,0.,-0.02969176,-0.00719784,0.,-0.00098
 779,-0.03815402,0.,0.01549725,-0.00033616,0.,0.00668663,-0.11364282,0.
 ,0.05599120,-0.28790359,0.,-0.03856834,-0.28365957,0.,0.20269942,0.837
 45753,0.,-0.00600099,0.,0.,-0.04645025,0.,0.,0.00528653,0.,0.,0.009731
 87,0.,0.,0.00713184,0.,0.,0.01274044,0.,0.,-0.06201992,0.,0.,-0.001064
 12,0.,0.,0.08065028,0.00443668,0.,-0.00821739,-0.01174865,0.,-0.372104
 41,0.00287711,0.,0.00042627,0.07705385,0.,-0.05415084,0.00308531,0.,-0
 .00503943,0.03004918,0.,-0.03748146,-0.12203958,0.,-0.13642802,0.19394
 698,0.,-0.26251517,-0.17764607,0.,0.87553473\\0.00000122,0.,0.00002380
 ,0.00006137,0.,-0.00010584,0.00001800,0.,0.00000072,-0.00003993,0.,0.0
 0004424,-0.00001008,0.,-0.00001132,-0.00004367,0.,-0.00003576,0.000086
 71,0.,0.00007239,0.00002228,0.,-0.00000058,-0.00009590,0.,0.00001235\\
 \@

 THEORY:  SUPPOSITION WHICH HAS SCIENTIFIC BASIS,
          BUT NOT EXPERIMENTALLY PROVEN.
 FACT:    A THEORY WHICH HAS BEEN PROVEN BY ENOUGH
          MONEY TO PAY FOR THE EXPERIMENTS.

                          --  THE WIZARD OF ID
 Job cpu time:  0 days 13 hours  7 minutes 18.0 seconds.
 File lengths (MBytes):  RWF=  409 Int=    0 D2E=    0 Chk=    4 Scr=    1
 Normal termination of Gaussian 98.
