 Gaussian 09, Revision B.01,
 Gaussian 09:  EM64L-G09RevB.01 12-Aug-2010

 ---------------------------
 #MP3=FULL/6-31G(d) opt freq
 ---------------------------

 -------------------------------------------------------------------
 1hpyraz 1H-Pyrazole casno=288131 state=1 config=1 method=71 basis=1
 -------------------------------------------------------------------
 Symbolic Z-matrix:
 Charge =  0 Multiplicity = 1

 SCF Done:  E(RHF) =  -224.793493483     A.U. after   13 cycles
 E2 =    -0.7284579030D+00 EUMP2 =    -0.22552195138645D+03
 SCF Done:  E(RHF) =  -224.791483385     A.U. after   12 cycles
 E2 =    -0.7333531354D+00 EUMP2 =    -0.22552483652082D+03
 SCF Done:  E(RHF) =  -224.791428350     A.U. after   12 cycles
 E2 =    -0.7335714119D+00 EUMP2 =    -0.22552499976223D+03
 SCF Done:  E(RHF) =  -224.791390761     A.U. after   10 cycles
 E2 =    -0.7336586464D+00 EUMP2 =    -0.22552504940790D+03
 SCF Done:  E(RHF) =  -224.791401715     A.U. after    8 cycles
 E2 =    -0.7336435040D+00 EUMP2 =    -0.22552504521899D+03
 Optimization completed.
    -- Stationary point found.
 Normal termination of Gaussian 09 at Fri Sep  7 14:43:11 2012.

 ----------------------------------------------------------------------
 #N Geom=AllCheck Guess=TCheck SCRF=Check GenChk RMP3-Full/6-31G(d) Fre
 q
 ----------------------------------------------------------------------

 1hpyraz 1H-Pyrazole casno=288131 state=1 config=1 method=71 basis=1
 -------------------------------------------------------------------
 Redundant internal coordinates taken from checkpoint file:
 /tmp/rdj3/g09-1239/Gau-7238.chk
 Charge =  0 Multiplicity = 1

                         Standard orientation:
 ---------------------------------------------------------------------
 Center     Atomic      Atomic             Coordinates (Angstroms)
 Number     Number       Type             X           Y           Z
 ---------------------------------------------------------------------
      1          1           0        2.103192    0.730184    0.000000
      2          6           0        1.110404    0.305326    0.000000
      3          1           0        1.263558   -1.894813    0.000000
      4          6           0        0.664212   -0.997224    0.000000
      5          1           0       -1.479262   -1.681478    0.000000
      6          6           0       -0.743488   -0.889460    0.000000
      7          7           0       -1.146201    0.379169    0.000000
      8          1           0       -0.050849    2.090318    0.000000
      9          7           0        0.000000    1.084250    0.000000
 ---------------------------------------------------------------------

 SCF Done:  E(RHF) =  -224.791401715     A.U. after    1 cycles
 E2 =    -0.7336435002D+00 EUMP2 =    -0.22552504521516D+03
 SCF Done:  E(RHF) =  -224.791387077     A.U. after    7 cycles
 E2 =    -0.7336588783D+00 EUMP2 =    -0.22552504595511D+03
 SCF Done:  E(RHF) =  -224.791415120     A.U. after    8 cycles
 E2 =    -0.7336281416D+00 EUMP2 =    -0.22552504326109D+03
 SCF Done:  E(RHF) =  -224.791395480     A.U. after    7 cycles
 E2 =    -0.7336502241D+00 EUMP2 =    -0.22552504570432D+03
 SCF Done:  E(RHF) =  -224.791407543     A.U. after    8 cycles
 E2 =    -0.7336367987D+00 EUMP2 =    -0.22552504434162D+03
 E2 =    -0.7336435186D+00 EUMP2 =    -0.22552504517916D+03
 E2 =    -0.7336825840D+00 EUMP2 =    -0.22552505360143D+03
 E2 =    -0.7336045591D+00 EUMP2 =    -0.22552503376842D+03
 E2 =    -0.7336494080D+00 EUMP2 =    -0.22552505023125D+03
 E2 =    -0.7336376030D+00 EUMP2 =    -0.22552503758750D+03
 E2 =    -0.7336436155D+00 EUMP2 =    -0.22552504503835D+03
 E2 =    -0.7336528020D+00 EUMP2 =    -0.22552504594582D+03
 E2 =    -0.7336342266D+00 EUMP2 =    -0.22552504393206D+03
 E2 =    -0.7336311236D+00 EUMP2 =    -0.22552504418112D+03
 E2 =    -0.7336558931D+00 EUMP2 =    -0.22552504522013D+03
 E2 =    -0.7336834661D+00 EUMP2 =    -0.22552506074955D+03
 E2 =    -0.7336036827D+00 EUMP2 =    -0.22552502705122D+03
 E2 =    -0.7335757417D+00 EUMP2 =    -0.22552502121309D+03
 E2 =    -0.7337113565D+00 EUMP2 =    -0.22552506630673D+03
 E2 =    -0.7336436094D+00 EUMP2 =    -0.22552504499438D+03
 E2 =    -0.7335789363D+00 EUMP2 =    -0.22552503039633D+03
 E2 =    -0.7337081678D+00 EUMP2 =    -0.22552505818214D+03
 E2 =    -0.7337094752D+00 EUMP2 =    -0.22552506726159D+03
 E2 =    -0.7335775035D+00 EUMP2 =    -0.22552502098839D+03
 E2 =    -0.7336435620D+00 EUMP2 =    -0.22552504503645D+03
 SCF Done:  E(RHF) =  -224.791403967     A.U. after    8 cycles
 E2 =    -0.7336401914D+00 EUMP2 =    -0.22552504415866D+03
 SCF Done:  E(RHF) =  -224.791399160     A.U. after    9 cycles
 E2 =    -0.7336468663D+00 EUMP2 =    -0.22552504602666D+03
 SCF Done:  E(RHF) =  -224.791373813     A.U. after    7 cycles
 E2 =    -0.7336777421D+00 EUMP2 =    -0.22552505155504D+03
 SCF Done:  E(RHF) =  -224.791427832     A.U. after    9 cycles
 E2 =    -0.7336093006D+00 EUMP2 =    -0.22552503713267D+03
 SCF Done:  E(RHF) =  -224.791401678     A.U. after    7 cycles
 E2 =    -0.7336435146D+00 EUMP2 =    -0.22552504519305D+03
 SCF Done:  E(RHF) =  -224.791399852     A.U. after    9 cycles
 E2 =    -0.7336435123D+00 EUMP2 =    -0.22552504336472D+03
 SCF Done:  E(RHF) =  -224.791401116     A.U. after   10 cycles
 E2 =    -0.7336435259D+00 EUMP2 =    -0.22552504464206D+03
 SCF Done:  E(RHF) =  -224.791395164     A.U. after    9 cycles
 E2 =    -0.7336414593D+00 EUMP2 =    -0.22552503662318D+03
 SCF Done:  E(RHF) =  -224.791404429     A.U. after    9 cycles
 E2 =    -0.7336456787D+00 EUMP2 =    -0.22552505010770D+03
 SCF Done:  E(RHF) =  -224.791401518     A.U. after    7 cycles
 E2 =    -0.7336435547D+00 EUMP2 =    -0.22552504507253D+03

 Alpha  occ. eigenvalues --  -15.64111 -15.58548 -11.27666 -11.24910 -11.21990
 Alpha  occ. eigenvalues --   -1.37021  -1.09165  -1.04713  -0.81982  -0.79519
 Alpha  occ. eigenvalues --   -0.73819  -0.60542  -0.60042  -0.58744  -0.55856
 Alpha  occ. eigenvalues --   -0.45295  -0.35809  -0.34022
 Alpha virt. eigenvalues --    0.17710   0.22521   0.24519   0.28043   0.30325
 Alpha virt. eigenvalues --    0.31490   0.40521   0.41157   0.45637   0.58025
 Alpha virt. eigenvalues --    0.65564   0.74106   0.77381   0.78283   0.82685

 Mulliken atomic charges:
              1
     1  H    0.200148
     2  C    0.034649
     3  H    0.186568
     4  C   -0.282094
     5  H    0.182315
     6  C   -0.004632
     7  N   -0.261998
     8  H    0.387080
     9  N   -0.442037
 Sum of Mulliken atomic charges =   0.00000

 Dipole moment (field-independent basis, Debye):
    X=              2.1812    Y=              0.8819    Z=             -0.0012  Tot=              2.3528
 Quadrupole moment (field-independent basis, Debye-Ang):
   XX=            -29.5813   YY=            -21.8808   ZZ=            -31.6944
   XY=              2.5186   XZ=             -0.0002   YZ=             -0.0024

                     1                      2                      3
                    A"                     A"                     A"
 Frequencies --   517.7717               633.4901               702.4298
 Red. masses --     1.8869                 3.0610                 2.6883
 Frc consts  --     0.2980                 0.7238                 0.7815
 IR Inten    --    63.6136                 0.0000                24.0377

                     4                      5                      6
                    A"                     A"                     A"
 Frequencies --   756.7865               820.7677               868.7004
 Red. masses --     1.2116                 1.1600                 1.2294
 Frc consts  --     0.4088                 0.4604                 0.5466
 IR Inten    --    90.9313                 6.1868                15.3587

                     7                      8                      9
                    A'                     A'                     A'
 Frequencies --   941.3800               961.1453              1091.6344
 Red. masses --     5.7896                 4.1232                 1.4933
 Frc consts  --     3.0229                 2.2442                 1.0485
 IR Inten    --     8.2583                 5.1582                17.0257

                    10                     11                     12
                    A'                     A'                     A'
 Frequencies --  1096.9136              1185.7630              1229.4870
 Red. masses --     1.5127                 1.9279                 2.6022
 Frc consts  --     1.0723                 1.5971                 2.3176
 IR Inten    --    25.0163                19.4868                 1.5323

                    13                     14                     15
                    A'                     A'                     A'
 Frequencies --  1329.1330              1440.1539              1489.7296
 Red. masses --     1.6557                 2.7135                 3.9292
 Frc consts  --     1.7233                 3.3158                 5.1377
 IR Inten    --     2.3094                 4.8071                19.3770

                    16                     17                     18
                    A'                     A'                     A'
 Frequencies --  1554.5649              1631.8739              3310.5375
 Red. masses --     2.7520                 3.1685                 1.0931
 Frc consts  --     3.9184                 4.9714                 7.0583
 IR Inten    --     8.9822                 6.5043                 3.8774

                    19                     20                     21
                    A'                     A'                     A'
 Frequencies --  3322.7804              3340.9573              3737.1590
 Red. masses --     1.0950                 1.1082                 1.0822
 Frc consts  --     7.1231                 7.2882                 8.9048
 IR Inten    --     2.0346                 0.3237                89.1198

 - Thermochemistry -
 -------------------
 Temperature   298.150 Kelvin.  Pressure   1.00000 Atm.
 Atom     1 has atomic number  1 and mass   1.00783

 Molecular mass:    68.03745 amu.
 Principal axes and moments of inertia in atomic units:
                           1         2         3
     Eigenvalues --   186.48356 191.22043 377.70398
           X            0.92121   0.38907   0.00000
           Y           -0.38907   0.92121   0.00000
           Z            0.00000   0.00000   1.00000
 This molecule is an asymmetric top.
 Rotational symmetry number  1.
 Rotational temperatures (Kelvin)      0.46446     0.45295     0.22932
 Rotational constants (GHZ):           9.67775     9.43801     4.77819
 Zero-point vibrational energy     191182.1 (Joules/Mol)
                                   45.69363 (Kcal/Mol)
 Warning -- explicit consideration of   1 degrees of freedom as
           vibrations may cause significant error
 Vibrational temperatures:    744.96   911.45  1010.64  1088.85  1180.90
          (Kelvin)           1249.86  1354.43  1382.87  1570.62  1578.21
                             1706.05  1768.96  1912.32  2072.06  2143.39
                             2236.67  2347.90  4763.12  4780.73  4806.89
                             5376.93

 Zero-point correction=                           0.072817 (Hartree/Particle)
 Thermal correction to Energy=                    0.076541
 Thermal correction to Enthalpy=                  0.077485
 Thermal correction to Gibbs Free Energy=         0.046556
 Sum of electronic and zero-point Energies=           -225.464310
 Sum of electronic and thermal Energies=              -225.460586
 Sum of electronic and thermal Enthalpies=            -225.459642
 Sum of electronic and thermal Free Energies=         -225.490571

                     E (Thermal)             CV                S
                      KCal/Mol        Cal/Mol-Kelvin    Cal/Mol-Kelvin
 Total                   48.030             13.096             65.096
 Electronic               0.000              0.000              0.000
 Translational            0.889              2.981             38.570
 Rotational               0.889              2.981             24.114
 Vibrational             46.253              7.134              2.412
 Vibration     1          0.873              1.211              0.615

 Optimization completed.
    -- Stationary point found.
 Normal termination of Gaussian 09 at Fri Sep  7 15:01:41 2012.
