 Gaussian 09, Revision B.01,
 Gaussian 09:  EM64L-G09RevB.01 12-Aug-2010

 ------------------------------
 #MP3=FULL/6-31+G(d,p) opt freq
 ------------------------------

 -------------------------------------------------------------------
 1hpyraz 1H-Pyrazole casno=288131 state=1 config=1 method=71 basis=4
 -------------------------------------------------------------------
 Symbolic Z-matrix:
 Charge =  0 Multiplicity = 1

 SCF Done:  E(RHF) =  -224.811405985     A.U. after   14 cycles
 E2 =    -0.7607906178D+00 EUMP2 =    -0.22557219660263D+03
 SCF Done:  E(RHF) =  -224.809713535     A.U. after   13 cycles
 E2 =    -0.7652805727D+00 EUMP2 =    -0.22557499410814D+03
 SCF Done:  E(RHF) =  -224.809599512     A.U. after   12 cycles
 E2 =    -0.7655695292D+00 EUMP2 =    -0.22557516904127D+03
 SCF Done:  E(RHF) =  -224.809585696     A.U. after   10 cycles
 E2 =    -0.7656285653D+00 EUMP2 =    -0.22557521426106D+03
 Optimization completed.
    -- Stationary point found.
 Normal termination of Gaussian 09 at Fri Feb  1 03:40:28 2013.

 ----------------------------------------------------------------------
 #N Geom=AllCheck Guess=TCheck SCRF=Check GenChk RMP3-Full/6-31+G(d,p)
 Freq
 ----------------------------------------------------------------------

 1hpyraz 1H-Pyrazole casno=288131 state=1 config=1 method=71 basis=4
 -------------------------------------------------------------------
 Redundant internal coordinates taken from checkpoint file:
 /tmp/rdj3/g09-4531/Gau-10493.chk
 Charge =  0 Multiplicity = 1

                         Standard orientation:
 ---------------------------------------------------------------------
 Center     Atomic      Atomic             Coordinates (Angstroms)
 Number     Number       Type             X           Y           Z
 ---------------------------------------------------------------------
      1          1           0        2.098286    0.728650    0.000000
      2          6           0        1.111108    0.306158    0.000000
      3          1           0        1.260997   -1.890774    0.000000
      4          6           0        0.664683   -0.998415    0.000000
      5          1           0       -1.476527   -1.678657    0.000000
      6          6           0       -0.744817   -0.891640    0.000000
      7          7           0       -1.145809    0.378694    0.000000
      8          1           0       -0.047936    2.087149    0.000000
      9          7           0        0.000000    1.086594    0.000000
 ---------------------------------------------------------------------

 SCF Done:  E(RHF) =  -224.809585696     A.U. after    1 cycles
 E2 =    -0.7656285607D+00 EUMP2 =    -0.22557521425651D+03
 SCF Done:  E(RHF) =  -224.809579846     A.U. after    7 cycles
 E2 =    -0.7656369508D+00 EUMP2 =    -0.22557521679647D+03
 SCF Done:  E(RHF) =  -224.809590282     A.U. after    8 cycles
 E2 =    -0.7656201872D+00 EUMP2 =    -0.22557521046968D+03
 SCF Done:  E(RHF) =  -224.809582743     A.U. after    8 cycles
 E2 =    -0.7656327922D+00 EUMP2 =    -0.22557521553553D+03
 SCF Done:  E(RHF) =  -224.809588243     A.U. after    8 cycles
 E2 =    -0.7656243529D+00 EUMP2 =    -0.22557521259570D+03
 SCF Done:  E(RHF) =  -224.809585645     A.U. after    7 cycles
 E2 =    -0.7656285733D+00 EUMP2 =    -0.22557521421836D+03
 E2 =    -0.7656751022D+00 EUMP2 =    -0.22557522091830D+03
 E2 =    -0.7655821669D+00 EUMP2 =    -0.22557520452896D+03
 E2 =    -0.7656357164D+00 EUMP2 =    -0.22557521863307D+03
 E2 =    -0.7656213983D+00 EUMP2 =    -0.22557520728827D+03
 E2 =    -0.7656286848D+00 EUMP2 =    -0.22557521408881D+03
 E2 =    -0.7656339706D+00 EUMP2 =    -0.22557521608937D+03
 E2 =    -0.7656231749D+00 EUMP2 =    -0.22557521186078D+03
 E2 =    -0.7656218602D+00 EUMP2 =    -0.22557521148900D+03
 E2 =    -0.7656352629D+00 EUMP2 =    -0.22557521595834D+03
 E2 =    -0.7656285704D+00 EUMP2 =    -0.22557521421734D+03
 E2 =    -0.7656627033D+00 EUMP2 =    -0.22557523064227D+03
 E2 =    -0.7655945695D+00 EUMP2 =    -0.22557519525415D+03
 E2 =    -0.7655546767D+00 EUMP2 =    -0.22557519072818D+03
 E2 =    -0.7657025319D+00 EUMP2 =    -0.22557523487041D+03
 E2 =    -0.7656286786D+00 EUMP2 =    -0.22557521404904D+03
 E2 =    -0.7655624920D+00 EUMP2 =    -0.22557519934319D+03
 E2 =    -0.7656947432D+00 EUMP2 =    -0.22557522734621D+03
 E2 =    -0.7656935531D+00 EUMP2 =    -0.22557523702385D+03
 E2 =    -0.7655635372D+00 EUMP2 =    -0.22557518932700D+03
 E2 =    -0.7656286266D+00 EUMP2 =    -0.22557521408443D+03
 SCF Done:  E(RHF) =  -224.809586979     A.U. after    8 cycles
 E2 =    -0.7656259409D+00 EUMP2 =    -0.22557521291973D+03
 SCF Done:  E(RHF) =  -224.809584120     A.U. after    9 cycles
 E2 =    -0.7656312247D+00 EUMP2 =    -0.22557521534490D+03
 SCF Done:  E(RHF) =  -224.809566808     A.U. after    7 cycles
 E2 =    -0.7656557658D+00 EUMP2 =    -0.22557522257408D+03
 SCF Done:  E(RHF) =  -224.809602737     A.U. after    9 cycles
 E2 =    -0.7656013838D+00 EUMP2 =    -0.22557520412065D+03
 SCF Done:  E(RHF) =  -224.809585662     A.U. after    7 cycles
 E2 =    -0.7656285715D+00 EUMP2 =    -0.22557521423399D+03
 SCF Done:  E(RHF) =  -224.809583805     A.U. after    9 cycles
 E2 =    -0.7656287483D+00 EUMP2 =    -0.22557521255321D+03
 SCF Done:  E(RHF) =  -224.809585179     A.U. after   10 cycles
 E2 =    -0.7656283961D+00 EUMP2 =    -0.22557521357480D+03
 SCF Done:  E(RHF) =  -224.809567590     A.U. after    9 cycles
 E2 =    -0.7656361315D+00 EUMP2 =    -0.22557520372118D+03
 SCF Done:  E(RHF) =  -224.809599913     A.U. after    9 cycles
 E2 =    -0.7656211236D+00 EUMP2 =    -0.22557522103703D+03
 SCF Done:  E(RHF) =  -224.809585495     A.U. after    8 cycles
 E2 =    -0.7656286292D+00 EUMP2 =    -0.22557521412423D+03

 Alpha  occ. eigenvalues --  -15.65062 -15.59815 -11.28562 -11.25849 -11.22943
 Alpha  occ. eigenvalues --   -1.37949  -1.10148  -1.05607  -0.82931  -0.80485
 Alpha  occ. eigenvalues --   -0.74672  -0.61491  -0.60727  -0.59595  -0.56725
 Alpha  occ. eigenvalues --   -0.46082  -0.36567  -0.34769
 Alpha virt. eigenvalues --    0.06363   0.08351   0.09226   0.11296   0.11364
 Alpha virt. eigenvalues --    0.12258   0.12817   0.15114   0.16398   0.17700
 Alpha virt. eigenvalues --    0.19147   0.19383   0.21981   0.23381   0.24194

 Mulliken atomic charges:
              1
     1  H    0.169577
     2  C   -0.124911
     3  H    0.163506
     4  C   -0.110128
     5  H    0.153428
     6  C   -0.137568
     7  N   -0.205266
     8  H    0.333851
     9  N   -0.242489
 Sum of Mulliken atomic charges =   0.00000

 Dipole moment (field-independent basis, Debye):
    X=              2.2762    Y=              0.8292    Z=             -0.0010  Tot=              2.4226
 Quadrupole moment (field-independent basis, Debye-Ang):
   XX=            -30.6536   YY=            -22.6340   ZZ=            -32.8367
   XY=              2.7341   XZ=             -0.0001   YZ=             -0.0025

                     1                      2                      3
                    A"                     A"                     A"
 Frequencies --   496.6351               613.8324               686.5723
 Red. masses --     1.9973                 3.2360                 2.5890
 Frc consts  --     0.2902                 0.7184                 0.7190
 IR Inten    --    57.2428                 0.0749                23.2424

                     4                      5                      6
                    A"                     A"                     A"
 Frequencies --   751.1501               813.9040               861.4439
 Red. masses --     1.2066                 1.1396                 1.2062
 Frc consts  --     0.4011                 0.4448                 0.5274
 IR Inten    --   111.9971                 1.6117                23.3216

                     7                      8                      9
                    A'                     A'                     A'
 Frequencies --   937.9138               957.4338              1087.8069
 Red. masses --     5.8219                 4.2353                 1.5297
 Frc consts  --     3.0174                 2.2874                 1.0665
 IR Inten    --     7.5297                 3.3844                20.9836

                    10                     11                     12
                    A'                     A'                     A'
 Frequencies --  1091.8201              1179.4063              1222.6570
 Red. masses --     1.5207                 1.9565                 2.6308
 Frc consts  --     1.0681                 1.6035                 2.3171
 IR Inten    --    21.8752                21.4523                 1.4678

                    13                     14                     15
                    A'                     A'                     A'
 Frequencies --  1327.1391              1439.8803              1488.7812
 Red. masses --     1.7268                 2.5498                 3.7921
 Frc consts  --     1.7919                 3.1147                 4.9521
 IR Inten    --     1.6371                 5.9059                18.9328

                    16                     17                     18
                    A'                     A'                     A'
 Frequencies --  1550.7022              1627.0670              3352.7163
 Red. masses --     2.6883                 2.9640                 1.0923
 Frc consts  --     3.8088                 4.6232                 7.2342
 IR Inten    --    10.3052                 6.4757                 2.5017

                    19                     20                     21
                    A'                     A'                     A'
 Frequencies --  3363.7038              3382.0120              3804.1275
 Red. masses --     1.0952                 1.1076                 1.0821
 Frc consts  --     7.3011                 7.4644                 9.2259
 IR Inten    --     1.7054                 0.1930               101.3871

 - Thermochemistry -
 -------------------
 Temperature   298.150 Kelvin.  Pressure   1.00000 Atm.
 Atom     1 has atomic number  1 and mass   1.00783

 Molecular mass:    68.03745 amu.
 Principal axes and moments of inertia in atomic units:
                           1         2         3
     Eigenvalues --   186.91704 191.17516 378.09220
           X            0.91855   0.39531   0.00000
           Y           -0.39531   0.91855   0.00000
           Z            0.00000   0.00000   1.00000
 This molecule is an asymmetric top.
 Rotational symmetry number  1.
 Rotational temperatures (Kelvin)      0.46338     0.45306     0.22908
 Rotational constants (GHZ):           9.65531     9.44025     4.77328
 Zero-point vibrational energy     191622.0 (Joules/Mol)
                                   45.79877 (Kcal/Mol)
 Warning -- explicit consideration of   2 degrees of freedom as
           vibrations may cause significant error
 Vibrational temperatures:    714.55   883.17   987.82  1080.74  1171.02
          (Kelvin)           1239.42  1349.45  1377.53  1565.11  1570.88
                             1696.90  1759.13  1909.45  2071.66  2142.02
                             2231.11  2340.98  4823.80  4839.61  4865.95
                             5473.28

 Zero-point correction=                           0.072985 (Hartree/Particle)
 Thermal correction to Energy=                    0.076749
 Thermal correction to Enthalpy=                  0.077694
 Thermal correction to Gibbs Free Energy=         0.046703
 Sum of electronic and zero-point Energies=           -225.514396
 Sum of electronic and thermal Energies=              -225.510631
 Sum of electronic and thermal Enthalpies=            -225.509687
 Sum of electronic and thermal Free Energies=         -225.540677

                     E (Thermal)             CV                S
                      KCal/Mol        Cal/Mol-Kelvin    Cal/Mol-Kelvin
 Total                   48.161             13.274             65.224
 Electronic               0.000              0.000              0.000
 Translational            0.889              2.981             38.570
 Rotational               0.889              2.981             24.117
 Vibrational             46.383              7.312              2.537
 Vibration     1          0.852              1.257              0.667
 Vibration     2          0.973              1.003              0.426

 Optimization completed.
    -- Stationary point found.
 Normal termination of Gaussian 09 at Fri Feb  1 05:08:06 2013.
