 Gaussian 09, Revision B.01,
 Gaussian 09:  EM64L-G09RevB.01 12-Aug-2010

 ---
 #G4
 ---
 1/14=-1,18=20,19=15,26=3,38=1/1,3;
 2/9=110,12=2,17=6,18=5,40=1/2;
 3/5=35,7=104,11=2,16=1,25=1,30=1,71=1,74=-5/1,2,3;
 4//1;
 5/5=2,38=5/2;

 -------------------------------------------------------------------
 1hpyraz 1H-Pyrazole casno=288131 state=1 config=1 method=74 basis=0
 -------------------------------------------------------------------
 Symbolic Z-matrix:
 Charge =  0 Multiplicity = 1

 SCF Done:  E(RB3LYP) =  -226.213924431     A.U. after   14 cycles
 SCF Done:  E(RB3LYP) =  -226.215593408     A.U. after   11 cycles
 SCF Done:  E(RB3LYP) =  -226.215651184     A.U. after    9 cycles
 SCF Done:  E(RB3LYP) =  -226.215660392     A.U. after    9 cycles
 Optimization completed.
    -- Stationary point found.
 Normal termination of Gaussian 09 at Thu Dec  8 11:35:35 2011.

 ----------------------------------------------------------
 #N Geom=AllCheck Guess=TCheck SCRF=Check B3LYP/GTBas3 Freq
 ----------------------------------------------------------

 1hpyraz 1H-Pyrazole casno=288131 state=1 config=1 method=74 basis=0
 -------------------------------------------------------------------
 Redundant internal coordinates taken from checkpoint file:
 /tmp/rdj3/g09-21896/Gau-23010.chk
 Charge =  0 Multiplicity = 1

 SCF Done:  E(RB3LYP) =  -226.215660392     A.U. after    1 cycles

  Exact polarizability:  47.590   1.913  49.237   0.000   0.000  20.691
 Approx polarizability:  80.047   1.407  82.817   0.000   0.000  32.466

                     1                      2                      3
                    A"                     A"                     A"
 Frequencies --   525.1251               639.2357               696.6033
 Red. masses --     1.6782                 2.6745                 2.9149
 Frc consts  --     0.2727                 0.6439                 0.8334
 IR Inten    --    49.7236                 0.0293                21.8804

                     4                      5                      6
                    A"                     A"                     A"
 Frequencies --   763.9903               838.2304               898.4109
 Red. masses --     1.2127                 1.2114                 1.3038
 Frc consts  --     0.4170                 0.5015                 0.6200
 IR Inten    --    63.6002                 7.2933                 5.0610

                     7                      8                      9
                    A'                     A'                     A'
 Frequencies --   921.8850               940.8799              1052.3208
 Red. masses --     5.6612                 3.9784                 1.6975
 Frc consts  --     2.8348                 2.0750                 1.1076
 IR Inten    --     9.3224                 6.9305                31.5929

                    10                     11                     12
                    A'                     A'                     A'
 Frequencies --  1062.1732              1149.4569              1184.5115
 Red. masses --     1.4475                 1.8635                 2.8007
 Frc consts  --     0.9622                 1.4507                 2.3152
 IR Inten    --     9.1583                16.9969                 0.4835

                    13                     14                     15
                    A'                     A'                     A'
 Frequencies --  1285.1630              1386.7807              1423.2453
 Red. masses --     1.7594                 2.5419                 3.6897
 Frc consts  --     1.7121                 2.8802                 4.4035
 IR Inten    --     2.8586                 4.6554                13.5411

                    16                     17                     18
                    A'                     A'                     A'
 Frequencies --  1483.9125              1570.5952              3245.5884
 Red. masses --     2.6468                 2.9548                 1.0923
 Frc consts  --     3.4339                 4.2944                 6.7790
 IR Inten    --     5.9121                 6.4013                 4.1430

                    19                     20                     21
                    A'                     A'                     A'
 Frequencies --  3260.6229              3280.3472              3676.4089
 Red. masses --     1.0928                 1.1067                 1.0814
 Frc consts  --     6.8453                 7.0162                 8.6113
 IR Inten    --     2.1238                 1.0385                74.6905

 - Thermochemistry -
 -------------------
 Temperature   298.150 Kelvin.  Pressure   1.00000 Atm.
 Atom     1 has atomic number  1 and mass   1.00783

 Molecular mass:    68.03745 amu.
 Principal axes and moments of inertia in atomic units:
                           1         2         3
     Eigenvalues --   186.75773 190.99458 377.75231
           X            0.91828   0.39593   0.00000
           Y           -0.39593   0.91828   0.00000
           Z            0.00000   0.00000   1.00000
 This molecule is an asymmetric top.
 Rotational symmetry number  1.
 Rotational temperatures (Kelvin)      0.46378     0.45349     0.22929
 Rotational constants (GHZ):           9.66354     9.44917     4.77758
 Zero-point vibrational energy     187128.8 (Joules/Mol)
                                   44.72485 (Kcal/Mol)
 Warning -- explicit consideration of   1 degrees of freedom as
           vibrations may cause significant error
 Vibrational temperatures:    755.54   919.72  1002.26  1099.21  1206.03
          (Kelvin)           1292.61  1326.39  1353.71  1514.05  1528.23
                             1653.81  1704.25  1849.06  1995.27  2047.73
                             2135.02  2259.73  4669.67  4691.30  4719.68
                             5289.53

 Zero-point correction=                           0.071274 (Hartree/Particle)
 Thermal correction to Energy=                    0.075006
 Thermal correction to Enthalpy=                  0.075951
 Thermal correction to Gibbs Free Energy=         0.045013
 Sum of electronic and zero-point Energies=           -226.144387
 Sum of electronic and thermal Energies=              -226.140654
 Sum of electronic and thermal Enthalpies=            -226.139710
 Sum of electronic and thermal Free Energies=         -226.170647

                     E (Thermal)             CV                S
                      KCal/Mol        Cal/Mol-Kelvin    Cal/Mol-Kelvin
 Total                   47.067             13.257             65.113
 Electronic               0.000              0.000              0.000
 Translational            0.889              2.981             38.570
 Rotational               0.889              2.981             24.114
 Vibrational             45.290              7.296              2.428
 Vibration     1          0.880              1.194              0.598

 Normal termination of Gaussian 09 at Thu Dec  8 11:36:42 2011.

 -----------------------------------------------------------------
 #N Geom=AllCheck Guess=TCheck SCRF=Check CCSD(T,E4T,FrzG4)/GTBas1
 -----------------------------------------------------------------

 1hpyraz 1H-Pyrazole casno=288131 state=1 config=1 method=74 basis=0
 -------------------------------------------------------------------
 Redundant internal coordinates taken from checkpoint file:
 /tmp/rdj3/g09-21896/Gau-23010.chk
 Charge =  0 Multiplicity = 1

 SCF Done:  E(RHF) =  -224.791473414     A.U. after   14 cycles
 E2 =    -0.7116689773D+00 EUMP2 =    -0.22550314239099D+03
 CCSD(T)= -0.22555413384D+03
 SDTQ=-225.5574118\MP4SDQ=-225.5235536\CCSD=-225.5233673\CCSD(T)=-225.5
 Normal termination of Gaussian 09 at Thu Dec  8 11:37:39 2011.

 ---------------------------------------------------------
 #N Geom=AllCheck Guess=TCheck SCRF=Check MP4=FrzG4/GTBas2
 ---------------------------------------------------------

 1hpyraz 1H-Pyrazole casno=288131 state=1 config=1 method=74 basis=0
 -------------------------------------------------------------------
 Redundant internal coordinates taken from checkpoint file:
 /tmp/rdj3/g09-21896/Gau-23010.chk
 Charge =  0 Multiplicity = 1

 SCF Done:  E(RHF) =  -224.799854255     A.U. after   13 cycles
 E2 =    -0.7193359995D+00 EUMP2 =    -0.22551919025486D+03
 Normal termination of Gaussian 09 at Thu Dec  8 11:38:05 2011.

 ---------------------------------------------------------
 #N Geom=AllCheck Guess=TCheck SCRF=Check MP4=FrzG4/GTBas3
 ---------------------------------------------------------

 1hpyraz 1H-Pyrazole casno=288131 state=1 config=1 method=74 basis=0
 -------------------------------------------------------------------
 Redundant internal coordinates taken from checkpoint file:
 /tmp/rdj3/g09-21896/Gau-23010.chk
 Charge =  0 Multiplicity = 1

 SCF Done:  E(RHF) =  -224.816065273     A.U. after   12 cycles
 E2 =    -0.8451067012D+00 EUMP2 =    -0.22566117197393D+03
 Normal termination of Gaussian 09 at Thu Dec  8 11:40:34 2011.

 -----------------------------------------------------------
 #N Geom=AllCheck Guess=TCheck SCRF=Check MP2=Full/GTLargeXP
 -----------------------------------------------------------

 1hpyraz 1H-Pyrazole casno=288131 state=1 config=1 method=74 basis=0
 -------------------------------------------------------------------
 Redundant internal coordinates taken from checkpoint file:
 /tmp/rdj3/g09-21896/Gau-23010.chk
 Charge =  0 Multiplicity = 1

 SCF Done:  E(RHF) =  -224.871149759     A.U. after   13 cycles
 E2 =    -0.1110272081D+01 EUMP2 =    -0.22598142183990D+03
 Normal termination of Gaussian 09 at Thu Dec  8 11:42:16 2011.
 SCF Done:  E(RHF) =  -224.888495839     A.U. after   10 cycles
 Normal termination of Gaussian 09 at Thu Dec  8 11:46:39 2011.

                         Standard orientation:
 ---------------------------------------------------------------------
 Center     Atomic      Atomic             Coordinates (Angstroms)
 Number     Number       Type             X           Y           Z
 ---------------------------------------------------------------------
      1          1           0        2.100487    0.732371    0.000000
      2          6           0        1.109615    0.306760    0.000000
      3          1           0        1.265492   -1.892112    0.000000
      4          6           0        0.663945   -0.997995    0.000000
      5          1           0       -1.476720   -1.683269    0.000000
      6          6           0       -0.743235   -0.890301    0.000000
      7          7           0       -1.146074    0.377919    0.000000
      8          1           0       -0.048696    2.089869    0.000000
      9          7           0        0.000000    1.085274    0.000000
 ---------------------------------------------------------------------

 SCF Done:  E(RHF) =  -224.891917125     A.U. after    8 cycles

 The electronic state is 1-A'.
 Alpha  occ. eigenvalues --  -15.63843 -15.58578 -11.27857 -11.25255 -11.22200
 Alpha  occ. eigenvalues --   -1.37442  -1.09711  -1.05213  -0.82516  -0.80127
 Alpha  occ. eigenvalues --   -0.74378  -0.61118  -0.60806  -0.59346  -0.56423
 Alpha  occ. eigenvalues --   -0.46087  -0.36621  -0.34773
 Alpha virt. eigenvalues --    0.03278   0.04409   0.04984   0.06218   0.06309
 Alpha virt. eigenvalues --    0.06986   0.08063   0.09010   0.09822   0.10229
 Alpha virt. eigenvalues --    0.11937   0.13084   0.13760   0.14779   0.15399

 Mulliken atomic charges:
              1
     1  H    0.221213
     2  C   -0.060184
     3  H    0.201841
     4  C   -0.308107
     5  H    0.209184
     6  C   -0.009678
     7  N   -0.394532
     8  H    0.377254
     9  N   -0.236992
 Sum of Mulliken atomic charges =   0.00000

 Dipole moment (field-independent basis, Debye):
    X=              2.3123    Y=              0.7029    Z=              0.0000  Tot=              2.4168
 Quadrupole moment (field-independent basis, Debye-Ang):
   XX=            -29.9989   YY=            -22.3067   ZZ=            -32.7344
   XY=              2.9137   XZ=              0.0000   YZ=              0.0000

 Normal termination of Gaussian 09 at Thu Dec  8 12:17:00 2011.
