 Gaussian 09, Revision B.01,
 Gaussian 09:  EM64L-G09RevB.01 12-Aug-2010

 ---------------------------
 #TPSSh/6-31+G(d,p) opt freq
 ---------------------------
 -------------------------------------------------------------------
 1hpyraz 1H-Pyrazole casno=288131 state=1 config=1 method=75 basis=4
 -------------------------------------------------------------------
 Symbolic Z-matrix:
 Charge =  0 Multiplicity = 1

 SCF Done:  E(RTPSSh) =  -226.228887305     A.U. after   12 cycles
 SCF Done:  E(RTPSSh) =  -226.231615109     A.U. after   10 cycles
 SCF Done:  E(RTPSSh) =  -226.231700261     A.U. after    9 cycles
 SCF Done:  E(RTPSSh) =  -226.231713491     A.U. after    9 cycles
 Optimization completed.
    -- Stationary point found.
 Normal termination of Gaussian 09 at Thu Feb  7 14:21:17 2013.

 ----------------------------------------------------------------------
 #T Geom=AllCheck Guess=TCheck SCRF=Check GenChk RTPSSh/6-31+G(d,p) Fre
 q
 ----------------------------------------------------------------------

 1hpyraz 1H-Pyrazole casno=288131 state=1 config=1 method=75 basis=4
 -------------------------------------------------------------------
 Redundant internal coordinates taken from checkpoint file:
 /tmp/rdj3/g09-13928/Gau-14481.chk
 Charge =  0 Multiplicity = 1

                         Standard orientation:
 ---------------------------------------------------------------------
 Center     Atomic      Atomic             Coordinates (Angstroms)
 Number     Number       Type             X           Y           Z
 ---------------------------------------------------------------------
      1          1           0        2.106966    0.734305    0.000000
      2          6           0        1.114715    0.308194    0.000000
      3          1           0        1.266778   -1.897964    0.000000
      4          6           0        0.665289   -1.001419    0.000000
      5          1           0       -1.481427   -1.684849    0.000000
      6          6           0       -0.744359   -0.894103    0.000000
      7          7           0       -1.150837    0.379941    0.000000
      8          1           0       -0.050327    2.096104    0.000000
      9          7           0        0.000000    1.088111    0.000000
 ---------------------------------------------------------------------

 SCF Done:  E(RTPSSh) =  -226.231713491     A.U. after    1 cycles

 The electronic state is 1-A'.
 Alpha  occ. eigenvalues --  -14.34705 -14.28726 -10.16747 -10.14407 -10.12574
 Alpha  occ. eigenvalues --   -1.02363  -0.79914  -0.76109  -0.59704  -0.57814
 Alpha  occ. eigenvalues --   -0.53040  -0.42929  -0.42154  -0.41498  -0.38432
 Alpha  occ. eigenvalues --   -0.27784  -0.25007  -0.24071
 Alpha virt. eigenvalues --   -0.00543   0.00146   0.02798   0.03365   0.04046
 Alpha virt. eigenvalues --    0.05534   0.06353   0.06428   0.08698   0.09949
 Alpha virt. eigenvalues --    0.11634   0.11803   0.12159   0.15773   0.17004

 Mulliken atomic charges:
              1
     1  H    0.169562
     2  C   -0.247329
     3  H    0.158132
     4  C    0.052181
     5  H    0.156957
     6  C   -0.258672
     7  N   -0.155175
     8  H    0.331678
     9  N   -0.207334
 Sum of Mulliken atomic charges =   0.00000

 Dipole moment (field-independent basis, Debye):
    X=              2.2425    Y=              0.8355    Z=              0.0000  Tot=              2.3930
  Exact polarizability:  54.172   0.866  53.564   0.000   0.000  30.897
 Approx polarizability:  91.003   0.460  91.368   0.000   0.000  43.594
 Calling FoFJK, ICntrl=    100127 FMM=F ISym2X=1 I1Cent= 0 IOpClX= 0 NMat=1 NMatS=1 NMatT=0.
 Full mass-weighted force constant matrix:
 Low frequencies ---   -7.5689    0.0007    0.0009    0.0010   11.8483   24.5690
 Low frequencies ---  525.2649  628.1386  683.3656
 Harmonic frequencies (cm**-1), IR intensities (KM/Mole), Raman scattering
 activities (A**4/AMU), depolarization ratios for plane and unpolarized
 incident light, reduced masses (AMU), force constants (mDyne/A),
 and normal coordinates:
                     1                      2                      3
                    A"                     A"                     A"
 Frequencies --   525.2649               628.1381               683.3651
 Red. masses --     1.8173                 2.6024                 2.7186
 Frc consts  --     0.2954                 0.6050                 0.7480
 IR Inten    --    54.6946                 0.0004                22.3525

                     4                      5                      6
                    A"                     A"                     A"
 Frequencies --   752.5630               834.9086               885.8213
 Red. masses --     1.2089                 1.2100                 1.2912
 Frc consts  --     0.4034                 0.4970                 0.5969
 IR Inten    --   107.0658                13.7389                 7.1442

                     7                      8                      9
                    A'                     A'                     A'
 Frequencies --   908.7310               926.3687              1051.2849
 Red. masses --     5.5573                 4.2421                 1.7414
 Frc consts  --     2.7039                 2.1449                 1.1339
 IR Inten    --     9.0749                 3.3465                39.1812

                    10                     11                     12
                    A'                     A'                     A'
 Frequencies --  1064.3605              1149.8587              1178.6729
 Red. masses --     1.4115                 1.8953                 2.7703
 Frc consts  --     0.9421                 1.4764                 2.2676
 IR Inten    --     8.6142                19.6752                 0.7359

                    13                     14                     15
                    A'                     A'                     A'
 Frequencies --  1281.1720              1385.0385              1437.6415
 Red. masses --     1.8271                 2.4114                 3.7577
 Frc consts  --     1.7670                 2.7254                 4.5759
 IR Inten    --     2.1382                 4.7613                12.3636

                    16                     17                     18
                    A'                     A'                     A'
 Frequencies --  1485.7215              1567.8836              3261.5562
 Red. masses --     2.6182                 2.8190                 1.0917
 Frc consts  --     3.4051                 4.0829                 6.8425
 IR Inten    --     7.7363                 6.1287                 3.3764

                    19                     20                     21
                    A'                     A'                     A'
 Frequencies --  3273.7658              3292.1753              3665.5957
 Red. masses --     1.0939                 1.1066                 1.0819
 Frc consts  --     6.9077                 7.0666                 8.5649
 IR Inten    --     3.2400                 1.1260                76.9280

 Normal termination of Gaussian 09 at Thu Feb  7 14:21:45 2013.
