 Gaussian 09, Revision B.01,
 Gaussian 09:  EM64L-G09RevB.01 12-Aug-2010

 -----------------------
 #TPSSh/cc-pVTZ opt freq
 -----------------------
 -------------------------------------------------------------------
 1hpyraz 1H-Pyrazole casno=288131 state=1 config=1 method=75 basis=6
 -------------------------------------------------------------------
 Symbolic Z-matrix:
 Charge =  0 Multiplicity = 1

 SCF Done:  E(RTPSSh) =  -226.294431499     A.U. after   14 cycles
 SCF Done:  E(RTPSSh) =  -226.296042040     A.U. after   11 cycles
 SCF Done:  E(RTPSSh) =  -226.296113796     A.U. after    9 cycles
 SCF Done:  E(RTPSSh) =  -226.296121689     A.U. after    8 cycles
 SCF Done:  E(RTPSSh) =  -226.296123091     A.U. after    7 cycles
 Optimization completed.
    -- Stationary point found.
 Normal termination of Gaussian 09 at Wed Feb 13 10:05:23 2013.

 -------------------------------------------------------------------
 #T Geom=AllCheck Guess=TCheck SCRF=Check GenChk RTPSSh/CC-pVTZ Freq
 -------------------------------------------------------------------

 1hpyraz 1H-Pyrazole casno=288131 state=1 config=1 method=75 basis=6
 -------------------------------------------------------------------
 Redundant internal coordinates taken from checkpoint file:
 /tmp/rdj3/g09-3836/Gau-4438.chk
 Charge =  0 Multiplicity = 1

                         Standard orientation:
 ---------------------------------------------------------------------
 Center     Atomic      Atomic             Coordinates (Angstroms)
 Number     Number       Type             X           Y           Z
 ---------------------------------------------------------------------
      1          1           0        2.100371    0.730584    0.000000
      2          6           0        1.109692    0.306512    0.000000
      3          1           0        1.263805   -1.890980    0.000000
      4          6           0        0.662791   -0.997314    0.000000
      5          1           0       -1.477289   -1.679512    0.000000
      6          6           0       -0.741883   -0.890099    0.000000
      7          7           0       -1.146043    0.378609    0.000000
      8          1           0       -0.048186    2.088565    0.000000
      9          7           0        0.000000    1.083784    0.000000
 ---------------------------------------------------------------------

 SCF Done:  E(RTPSSh) =  -226.296123091     A.U. after    1 cycles

 The electronic state is 1-A'.
 Alpha  occ. eigenvalues --  -14.32293 -14.26245 -10.14932 -10.12662 -10.10739
 Alpha  occ. eigenvalues --   -1.02080  -0.79534  -0.75797  -0.59348  -0.57516
 Alpha  occ. eigenvalues --   -0.52775  -0.42587  -0.42156  -0.41141  -0.38109
 Alpha  occ. eigenvalues --   -0.27417  -0.24807  -0.23866
 Alpha virt. eigenvalues --    0.00111   0.03528   0.05079   0.07414   0.08528
 Alpha virt. eigenvalues --    0.10424   0.17319   0.18703   0.19874   0.20795
 Alpha virt. eigenvalues --    0.28665   0.29466   0.32164   0.34041   0.34461

 Mulliken atomic charges:
              1
     1  H    0.097379
     2  C   -0.061989
     3  H    0.099447
     4  C   -0.180469
     5  H    0.093702
     6  C   -0.055097
     7  N   -0.190934
     8  H    0.164136
     9  N    0.033824
 Sum of Mulliken atomic charges =   0.00000

 Dipole moment (field-independent basis, Debye):
    X=              2.0520    Y=              0.9018    Z=              0.0000  Tot=              2.2414
  Exact polarizability:  51.741   1.725  52.429   0.000   0.000  26.653
 Approx polarizability:  90.451   1.406  92.127   0.000   0.000  41.250
 Calling FoFJK, ICntrl=    100127 FMM=F ISym2X=1 I1Cent= 0 IOpClX= 0 NMat=1 NMatS=1 NMatT=0.
 Full mass-weighted force constant matrix:
 Low frequencies ---  -10.3209    0.0011    0.0011    0.0014    8.5885   16.3336
 Low frequencies ---  529.7882  636.2011  691.2414
 Harmonic frequencies (cm**-1), IR intensities (KM/Mole), Raman scattering
 activities (A**4/AMU), depolarization ratios for plane and unpolarized
 incident light, reduced masses (AMU), force constants (mDyne/A),
 and normal coordinates:
                     1                      2                      3
                    A"                     A"                     A"
 Frequencies --   529.7881               636.2009               691.2412
 Red. masses --     1.7246                 2.5856                 2.8194
 Frc consts  --     0.2852                 0.6166                 0.7937
 IR Inten    --    46.5893                 0.2152                21.1270

                     4                      5                      6
                    A"                     A"                     A"
 Frequencies --   759.0855               844.0745               895.0162
 Red. masses --     1.2106                 1.2177                 1.3133
 Frc consts  --     0.4110                 0.5112                 0.6198
 IR Inten    --    86.3629                11.0448                 5.0314

                     7                      8                      9
                    A'                     A'                     A'
 Frequencies --   914.1536               930.8701              1044.9287
 Red. masses --     5.3418                 4.1203                 1.7802
 Frc consts  --     2.6301                 2.1036                 1.1452
 IR Inten    --    10.8368                 4.5925                35.6610

                    10                     11                     12
                    A'                     A'                     A'
 Frequencies --  1059.2554              1144.0993              1175.6623
 Red. masses --     1.4372                 1.8463                 2.8402
 Frc consts  --     0.9501                 1.4239                 2.3130
 IR Inten    --     7.5587                17.1905                 0.1242

                    13                     14                     15
                    A'                     A'                     A'
 Frequencies --  1275.2063              1378.2395              1426.5083
 Red. masses --     1.9242                 2.3041                 3.5645
 Frc consts  --     1.8436                 2.5787                 4.2737
 IR Inten    --     2.1847                 4.2836                11.6868

                    16                     17                     18
                    A'                     A'                     A'
 Frequencies --  1478.1116              1562.8943              3231.0883
 Red. masses --     2.6160                 2.8229                 1.0928
 Frc consts  --     3.3674                 4.0626                 6.7221
 IR Inten    --     5.9259                 5.4610                 4.3473

                    19                     20                     21
                    A'                     A'                     A'
 Frequencies --  3245.6527              3265.2712              3649.5815
 Red. masses --     1.0935                 1.1066                 1.0816
 Frc consts  --     6.7867                 6.9515                 8.4881
 IR Inten    --     2.7440                 1.4655                72.0647

 Optimization completed.
    -- Stationary point found.
 Normal termination of Gaussian 09 at Wed Feb 13 10:07:59 2013.
