 Gaussian 09, Revision B.01,
 Gaussian 09:  EM64L-G09RevB.01 12-Aug-2010

 ------------------------
 #TPSSh/6-31G(d) opt freq
 ------------------------
 -------------------------------------------------------------------
 1hpyraz 1H-Pyrazole casno=288131 state=1 config=1 method=75 basis=1
 -------------------------------------------------------------------
 Symbolic Z-matrix:
 Charge =  0 Multiplicity = 1

 SCF Done:  E(RTPSSh) =  -226.211534290     A.U. after   15 cycles
 SCF Done:  E(RTPSSh) =  -226.214237215     A.U. after   12 cycles
 SCF Done:  E(RTPSSh) =  -226.214321771     A.U. after    9 cycles
 SCF Done:  E(RTPSSh) =  -226.214329949     A.U. after    9 cycles
 Optimization completed.
    -- Stationary point found.
 Normal termination of Gaussian 09 at Tue Feb  5 18:15:46 2013.

 --------------------------------------------------------------------
 #T Geom=AllCheck Guess=TCheck SCRF=Check GenChk RTPSSh/6-31G(d) Freq
 --------------------------------------------------------------------

 1hpyraz 1H-Pyrazole casno=288131 state=1 config=1 method=75 basis=1
 -------------------------------------------------------------------
 Redundant internal coordinates taken from checkpoint file:
 /tmp/rdj3/g09-4782/Gau-5372.chk
 Charge =  0 Multiplicity = 1

                         Standard orientation:
 ---------------------------------------------------------------------
 Center     Atomic      Atomic             Coordinates (Angstroms)
 Number     Number       Type             X           Y           Z
 ---------------------------------------------------------------------
      1          1           0        2.106251    0.735735    0.000000
      2          6           0        1.114397    0.307503    0.000000
      3          1           0        1.267407   -1.897757    0.000000
      4          6           0        0.665444   -1.000897    0.000000
      5          1           0       -1.479686   -1.684210    0.000000
      6          6           0       -0.742737   -0.892264    0.000000
      7          7           0       -1.152159    0.380271    0.000000
      8          1           0       -0.051481    2.094898    0.000000
      9          7           0        0.000000    1.086198    0.000000
 ---------------------------------------------------------------------

 SCF Done:  E(RTPSSh) =  -226.214329949     A.U. after    1 cycles

 The electronic state is 1-A'.
 Alpha  occ. eigenvalues --  -14.33657 -14.27317 -10.15724 -10.13329 -10.11499
 Alpha  occ. eigenvalues --   -1.01205  -0.78850  -0.75074  -0.58876  -0.56842
 Alpha  occ. eigenvalues --   -0.52188  -0.41995  -0.41072  -0.40673  -0.37512
 Alpha  occ. eigenvalues --   -0.26567  -0.23837  -0.22899
 Alpha virt. eigenvalues --    0.01295   0.06627   0.07901   0.13356   0.15811
 Alpha virt. eigenvalues --    0.16978   0.21333   0.22785   0.28785   0.39418
 Alpha virt. eigenvalues --    0.42601   0.53604   0.55145   0.55982   0.59518

 Mulliken atomic charges:
              1
     1  H    0.182336
     2  C    0.061652
     3  H    0.163312
     4  C   -0.269010
     5  H    0.166718
     6  C    0.028786
     7  N   -0.283543
     8  H    0.360224
     9  N   -0.410475
 Sum of Mulliken atomic charges =   0.00000

 Dipole moment (field-independent basis, Debye):
    X=              2.1084    Y=              0.9019    Z=              0.0000  Tot=              2.2932
  Exact polarizability:  46.774   1.849  48.073   0.000   0.000  17.231
 Approx polarizability:  83.722   0.822  84.917   0.000   0.000  26.042
 Calling FoFJK, ICntrl=    100127 FMM=F ISym2X=1 I1Cent= 0 IOpClX= 0 NMat=1 NMatS=1 NMatT=0.
 Full mass-weighted force constant matrix:
 Low frequencies ---  -15.3202   -0.0010   -0.0009   -0.0008    8.3111   22.9620
 Low frequencies ---  499.5847  632.5469  689.4852
 Harmonic frequencies (cm**-1), IR intensities (KM/Mole), Raman scattering
 activities (A**4/AMU), depolarization ratios for plane and unpolarized
 incident light, reduced masses (AMU), force constants (mDyne/A),
 and normal coordinates:
                     1                      2                      3
                    A"                     A"                     A"
 Frequencies --   499.5846               632.5466               689.4848
 Red. masses --     1.7570                 2.7930                 2.8808
 Frc consts  --     0.2584                 0.6584                 0.8069
 IR Inten    --    56.8686                 0.0397                24.3432

                     4                      5                      6
                    A"                     A"                     A"
 Frequencies --   752.4460               829.8611               882.3764
 Red. masses --     1.2101                 1.1845                 1.2735
 Frc consts  --     0.4037                 0.4806                 0.5842
 IR Inten    --    75.5965                15.6437                 5.5939

                     7                      8                      9
                    A'                     A'                     A'
 Frequencies --   911.3641               929.2890              1055.9625
 Red. masses --     5.5622                 4.2580                 1.7564
 Frc consts  --     2.7220                 2.1665                 1.1539
 IR Inten    --     9.8448                 4.9468                35.1013

                    10                     11                     12
                    A'                     A'                     A'
 Frequencies --  1071.1842              1158.1484              1184.5241
 Red. masses --     1.4155                 1.8923                 2.7174
 Frc consts  --     0.9569                 1.4955                 2.2464
 IR Inten    --     8.0659                16.4554                 0.6836

                    13                     14                     15
                    A'                     A'                     A'
 Frequencies --  1288.5005              1392.0686              1446.2330
 Red. masses --     1.8418                 2.3919                 3.7382
 Frc consts  --     1.8016                 2.7309                 4.6067
 IR Inten    --     2.3095                 4.4812                12.0683

                    16                     17                     18
                    A'                     A'                     A'
 Frequencies --  1499.1492              1580.8496              3262.5284
 Red. masses --     2.6313                 2.8129                 1.0918
 Frc consts  --     3.4842                 4.1418                 6.8473
 IR Inten    --     6.8459                 6.0229                 6.2618

                    19                     20                     21
                    A'                     A'                     A'
 Frequencies --  3276.7108              3295.3721              3651.6994
 Red. masses --     1.0934                 1.1064                 1.0816
 Frc consts  --     6.9170                 7.0788                 8.4977
 IR Inten    --     5.8068                 2.4455                59.1329

 Optimization completed.
    -- Stationary point found.
 Normal termination of Gaussian 09 at Tue Feb  5 18:16:03 2013.
