 Gaussian 09, Revision B.01,
 Gaussian 09:  EM64L-G09RevB.01 12-Aug-2010

 ------------------------------------------------------------------
 #B2PLYP=FULL/6-31G* opt=tight freq=anharm integral(grid=ultrafine)
 ------------------------------------------------------------------

 -------------------------------------------------
 1H pyrazole C3H4N2 casno=288131 method=79 basis=1
 -------------------------------------------------
 Symbolic Z-matrix:
 Charge =  0 Multiplicity = 1

 SCF Done:  E(RB2PLYP) =  -225.723166124     A.U. after   14 cycles
 E2(B2PLYP) =    -0.2409138457D+00 E(B2PLYP) =    -0.22596407996971D+03
 SCF Done:  E(RB2PLYP) =  -225.723087108     A.U. after   12 cycles
 E2(B2PLYP) =    -0.2434305071D+00 E(B2PLYP) =    -0.22596651761465D+03
 SCF Done:  E(RB2PLYP) =  -225.722959248     A.U. after   10 cycles
 E2(B2PLYP) =    -0.2436434070D+00 E(B2PLYP) =    -0.22596660265551D+03
 SCF Done:  E(RB2PLYP) =  -225.722912078     A.U. after    9 cycles
 E2(B2PLYP) =    -0.2436990041D+00 E(B2PLYP) =    -0.22596661108196D+03
 SCF Done:  E(RB2PLYP) =  -225.722934194     A.U. after    8 cycles
 E2(B2PLYP) =    -0.2436786440D+00 E(B2PLYP) =    -0.22596661283768D+03
 SCF Done:  E(RB2PLYP) =  -225.722940143     A.U. after    6 cycles
 E2(B2PLYP) =    -0.2436727496D+00 E(B2PLYP) =    -0.22596661289215D+03
 SCF Done:  E(RB2PLYP) =  -225.722940289     A.U. after    5 cycles
 E2(B2PLYP) =    -0.2436726056D+00 E(B2PLYP) =    -0.22596661289432D+03
 Optimization completed.
    -- Stationary point found.
 Normal termination of Gaussian 09 at Thu Jul 19 11:26:39 2012.

 ----------------------------------------------------------------------
 #N Geom=AllCheck Guess=TCheck SCRF=Check GenChk RB2PLYP-Full/6-31G(d)
 Freq
 ----------------------------------------------------------------------

 1H pyrazole C3H4N2 casno=288131 method=79 basis=1
 -------------------------------------------------
 Redundant internal coordinates taken from checkpoint file:
 /tmp/rdj3/g09-6793/Gau-14582.chk
 Charge =  0 Multiplicity = 1

                         Standard orientation:
 ---------------------------------------------------------------------
 Center     Atomic      Atomic             Coordinates (Angstroms)
 Number     Number       Type             X           Y           Z
 ---------------------------------------------------------------------
      1          1           0        2.104995    0.732452    0.000000
      2          6           0        1.112834    0.307722    0.000000
      3          1           0        1.266809   -1.894292    0.000000
      4          6           0        0.664990   -0.999058    0.000000
      5          1           0       -1.476913   -1.684657    0.000000
      6          6           0       -0.742017   -0.892624    0.000000
      7          7           0       -1.151179    0.379177    0.000000
      8          1           0       -0.051478    2.093036    0.000000
      9          7           0        0.000000    1.086140    0.000000
 ---------------------------------------------------------------------

 SCF Done:  E(RB2PLYP) =  -225.722940289     A.U. after    1 cycles
 E2(B2PLYP) =    -0.2436726089D+00 E(B2PLYP) =    -0.22596661289765D+03
 E2(B2PLYP) =    -0.2436726089D+00 E(B2PLYP) =    -0.22596661289765D+03
 SCF Done:  E(RB2PLYP) =  -225.722723069     A.U. after    9 cycles
 E2(B2PLYP) =    -0.2437998791D+00 E(B2PLYP) =    -0.22596652294799D+03
 E2(B2PLYP) =    -0.2437998791D+00 E(B2PLYP) =    -0.22596652294799D+03
 SCF Done:  E(RB2PLYP) =  -225.722972051     A.U. after    9 cycles
 E2(B2PLYP) =    -0.2435467946D+00 E(B2PLYP) =    -0.22596651884557D+03
 E2(B2PLYP) =    -0.2435467946D+00 E(B2PLYP) =    -0.22596651884557D+03
 E2(B2PLYP) =    -0.2435865063D+00 E(B2PLYP) =    -0.22596653743109D+03
 E2(B2PLYP) =    -0.2435865063D+00 E(B2PLYP) =    -0.22596653743109D+03
 E2(B2PLYP) =    -0.2437601087D+00 E(B2PLYP) =    -0.22596653943566D+03
 E2(B2PLYP) =    -0.2437601087D+00 E(B2PLYP) =    -0.22596653943566D+03
 E2(B2PLYP) =    -0.2436631037D+00 E(B2PLYP) =    -0.22596653967627D+03
 E2(B2PLYP) =    -0.2436631037D+00 E(B2PLYP) =    -0.22596653967627D+03
 E2(B2PLYP) =    -0.2436835439D+00 E(B2PLYP) =    -0.22596653873021D+03
 SCF Done:  E(RB2PLYP) =  -225.722934692     A.U. after    8 cycles
 E2(B2PLYP) =    -0.2436735996D+00 E(B2PLYP) =    -0.22596660829197D+03
 E2(B2PLYP) =    -0.2436735996D+00 E(B2PLYP) =    -0.22596660829197D+03
 SCF Done:  E(RB2PLYP) =  -225.722934692     A.U. after    9 cycles
 E2(B2PLYP) =    -0.2436735994D+00 E(B2PLYP) =    -0.22596660829177D+03
 E2(B2PLYP) =    -0.2436735994D+00 E(B2PLYP) =    -0.22596660829177D+03
 SCF Done:  E(RB2PLYP) =  -225.722935687     A.U. after    8 cycles
 E2(B2PLYP) =    -0.2436734005D+00 E(B2PLYP) =    -0.22596660908741D+03
 E2(B2PLYP) =    -0.2436734005D+00 E(B2PLYP) =    -0.22596660908741D+03
 SCF Done:  E(RB2PLYP) =  -225.722935687     A.U. after    8 cycles
 E2(B2PLYP) =    -0.2436733989D+00 E(B2PLYP) =    -0.22596660908578D+03
 E2(B2PLYP) =    -0.2436733989D+00 E(B2PLYP) =    -0.22596660908578D+03
 SCF Done:  E(RB2PLYP) =  -225.722936631     A.U. after    8 cycles
 E2(B2PLYP) =    -0.2436730064D+00 E(B2PLYP) =    -0.22596660963704D+03
 E2(B2PLYP) =    -0.2436730064D+00 E(B2PLYP) =    -0.22596660963704D+03
 SCF Done:  E(RB2PLYP) =  -225.722936631     A.U. after    8 cycles
 E2(B2PLYP) =    -0.2436730060D+00 E(B2PLYP) =    -0.22596660963665D+03
 E2(B2PLYP) =    -0.2436730060D+00 E(B2PLYP) =    -0.22596660963665D+03
 SCF Done:  E(RB2PLYP) =  -225.722937213     A.U. after    7 cycles
 E2(B2PLYP) =    -0.2436729563D+00 E(B2PLYP) =    -0.22596661016884D+03
 E2(B2PLYP) =    -0.2436729563D+00 E(B2PLYP) =    -0.22596661016884D+03
 SCF Done:  E(RB2PLYP) =  -225.722937213     A.U. after    8 cycles
 E2(B2PLYP) =    -0.2436729565D+00 E(B2PLYP) =    -0.22596661016902D+03
 E2(B2PLYP) =    -0.2436729565D+00 E(B2PLYP) =    -0.22596661016902D+03
 SCF Done:  E(RB2PLYP) =  -225.722937903     A.U. after    9 cycles
 E2(B2PLYP) =    -0.2436733087D+00 E(B2PLYP) =    -0.22596661121168D+03
 E2(B2PLYP) =    -0.2436733087D+00 E(B2PLYP) =    -0.22596661121168D+03
 SCF Done:  E(RB2PLYP) =  -225.722937903     A.U. after    9 cycles
 E2(B2PLYP) =    -0.2436733080D+00 E(B2PLYP) =    -0.22596661121098D+03
 E2(B2PLYP) =    -0.2436733080D+00 E(B2PLYP) =    -0.22596661121098D+03

 Alpha  occ. eigenvalues --  -14.92348 -14.86326 -10.66303 -10.63776 -10.61438
 Alpha  occ. eigenvalues --   -1.17482  -0.92753  -0.88690  -0.69679  -0.67477
 Alpha  occ. eigenvalues --   -0.62365  -0.50880  -0.50098  -0.49312  -0.46290
 Alpha  occ. eigenvalues --   -0.35530  -0.29776  -0.28397
 Alpha virt. eigenvalues --    0.08591   0.13854   0.14630   0.19391   0.21728
 Alpha virt. eigenvalues --    0.22923   0.29946   0.30501   0.35900   0.47335
 Alpha virt. eigenvalues --    0.52450   0.62251   0.63933   0.64877   0.69044

 Mulliken atomic charges:
              1
     1  H    0.174922
     2  C    0.055795
     3  H    0.157048
     4  C   -0.248286
     5  H    0.158546
     6  C    0.019840
     7  N   -0.270312
     8  H    0.362749
     9  N   -0.410302
 Sum of Mulliken atomic charges =   0.00000

 Dipole moment (field-independent basis, Debye):
    X=              2.1350    Y=              0.9050    Z=             -0.0120  Tot=              2.3189
 Quadrupole moment (field-independent basis, Debye-Ang):
   XX=            -29.4331   YY=            -21.8356   ZZ=            -31.4280
   XY=              2.4439   XZ=             -0.0023   YZ=             -0.0343

  Exact polarizability:  45.835   1.882  47.320  -0.002  -0.019  16.912
 Approx polarizability:  59.020   0.770  61.223  -0.006   0.000  21.938

                     1                      2                      3
                    A"                     A"                     A"
 Frequencies --   499.4705               635.5550               694.6832
 Red. masses --     1.7392                 2.8839                 2.9089
 Frc consts  --     0.2556                 0.6863                 0.8271
 IR Inten    --    60.4435                 0.0376                24.6557

                     4                      5                      6
                    A"                     A"                     A"
 Frequencies --   750.9552               825.5721               876.5848
 Red. masses --     1.2114                 1.1799                 1.2630
 Frc consts  --     0.4025                 0.4738                 0.5718
 IR Inten    --    74.6633                12.4732                 7.1747

                     7                      8                      9
                    A'                     A'                     A'
 Frequencies --   924.6697               943.6070              1063.1122
 Red. masses --     5.6440                 4.1829                 1.7601
 Frc consts  --     2.8432                 2.1944                 1.1720
 IR Inten    --     9.0711                 5.5201                33.7306

                    10                     11                     12
                    A'                     A'                     A'
 Frequencies --  1077.8469              1166.7659              1192.8526
 Red. masses --     1.4193                 1.9023                 2.6209
 Frc consts  --     0.9715                 1.5258                 2.1973
 IR Inten    --     8.0578                16.6455                 0.5744

                    13                     14                     15
                    A'                     A'                     A'
 Frequencies --  1299.2297              1402.0671              1456.3812
 Red. masses --     1.8360                 2.3832                 3.7632
 Frc consts  --     1.8260                 2.7602                 4.7028
 IR Inten    --     2.1848                 4.5629                13.3858

                    16                     17                     18
                    A'                     A'                     A'
 Frequencies --  1509.8496              1586.9717              3290.3819
 Red. masses --     2.6486                 2.8674                 1.0922
 Frc consts  --     3.5574                 4.2548                 6.9672
 IR Inten    --     7.0550                 6.7117                 4.2089

                    19                     20                     21
                    A'                     A'                     A'
 Frequencies --  3302.2513              3319.4660              3689.3139
 Red. masses --     1.0941                 1.1066                 1.0821
 Frc consts  --     7.0294                 7.1844                 8.6775
 IR Inten    --     2.9781                 0.8426                74.7157

 - Thermochemistry -
 -------------------
 Temperature   298.150 Kelvin.  Pressure   1.00000 Atm.
 Atom     1 has atomic number  1 and mass   1.00783

 Molecular mass:    68.03745 amu.
 Principal axes and moments of inertia in atomic units:
                           1         2         3
     Eigenvalues --   187.24694 191.99326 379.24021
           X            0.92274   0.38542   0.00000
           Y           -0.38542   0.92274   0.00000
           Z            0.00000   0.00000   1.00000
 This molecule is an asymmetric top.
 Rotational symmetry number  1.
 Rotational temperatures (Kelvin)      0.46256     0.45113     0.22839
 Rotational constants (GHZ):           9.63829     9.40002     4.75883
 Zero-point vibrational energy     188457.2 (Joules/Mol)
                                   45.04236 (Kcal/Mol)
 Warning -- explicit consideration of   1 degrees of freedom as
           vibrations may cause significant error
 Vibrational temperatures:    718.63   914.42   999.49  1080.46  1187.81
          (Kelvin)           1261.21  1330.39  1357.64  1529.58  1550.78
                             1678.71  1716.25  1869.30  2017.26  2095.41
                             2172.33  2283.30  4734.12  4751.20  4775.97
                             5308.09

 Zero-point correction=                           0.071780 (Hartree/Particle)
 Thermal correction to Energy=                    0.075537
 Thermal correction to Enthalpy=                  0.076481
 Thermal correction to Gibbs Free Energy=         0.045500
 Sum of electronic and zero-point Energies=           -225.894833
 Sum of electronic and thermal Energies=              -225.891076
 Sum of electronic and thermal Enthalpies=            -225.890132
 Sum of electronic and thermal Free Energies=         -225.921113

                     E (Thermal)             CV                S
                      KCal/Mol        Cal/Mol-Kelvin    Cal/Mol-Kelvin
 Total                   47.400             13.315             65.206
 Electronic               0.000              0.000              0.000
 Translational            0.889              2.981             38.570
 Rotational               0.889              2.981             24.126
 Vibrational             45.623              7.354              2.510
 Vibration     1          0.855              1.251              0.659

 Optimization completed.
    -- Stationary point found.
 Normal termination of Gaussian 09 at Thu Jul 19 12:54:01 2012.
