 Gaussian 98, Revision A.6,
 Gaussian 98:  IBM-RS6000-G98RevA.6 19-Oct-1998

 ------------------------
 #B3LYP/CEP-31G* opt freq
 ------------------------

 -------------------------------
 1H pyrazole C3H4N2 casno=288131
 -------------------------------
 Symbolic Z-matrix:
 Charge =  0 Multiplicity = 1

 SCF Done:  E(RB+HF-LYP) =  -39.0326079864     A.U. after   16 cycles
 SCF Done:  E(RB+HF-LYP) =  -39.1050087791     A.U. after   14 cycles
 SCF Done:  E(RB+HF-LYP) =  -39.1254655199     A.U. after   15 cycles
 SCF Done:  E(RB+HF-LYP) =  -39.1258656141     A.U. after   12 cycles
 SCF Done:  E(RB+HF-LYP) =  -39.1259962719     A.U. after   10 cycles
 SCF Done:  E(RB+HF-LYP) =  -39.1260173165     A.U. after   10 cycles
 SCF Done:  E(RB+HF-LYP) =  -39.1260184783     A.U. after    8 cycles
 Optimization completed.
    -- Stationary point found.
 Normal termination of Gaussian 98.

 ----------------------------------------------------
 #N Geom=AllCheck Guess=TCheck RB3LYP/CEP-31G(d) Freq
 ----------------------------------------------------

 1H pyrazole C3H4N2 casno=288131
 -------------------------------
 Redundant internal coordinates taken from checkpointfile:
 /wrk/rdj3/Gau-15762.chk
 Charge =  0 Multiplicity = 1

                         Standard orientation:
 ---------------------------------------------------------------------
 Center     Atomic     Atomic              Coordinates (Angstroms)
 Number     Number      Type              X           Y           Z
 ---------------------------------------------------------------------
    1          1             0        2.123546    0.719517    0.000000
    2          6             0        1.120453    0.294969    0.000000
    3          1             0        1.258240   -1.939039    0.000000
    4          6             0        0.658883   -1.031019    0.000000
    5          1             0       -1.526508   -1.690565    0.000000
    6          6             0       -0.771952   -0.902890    0.000000
    7          7             0       -1.168614    0.383321    0.000000
    8          1             0       -0.041742    2.104904    0.000000
    9          7             0        0.000000    1.088868    0.000000
 ---------------------------------------------------------------------

 SCF Done:  E(RB+HF-LYP) =  -39.1260184782     A.U. after    1 cycles

  The electronic state is 1-A'.
 Alpha  occ. eigenvalues --   -1.03802  -0.81736  -0.77578  -0.61139  -0.59228
 Alpha  occ. eigenvalues --   -0.54221  -0.44197  -0.43012  -0.42894  -0.39682
 Alpha  occ. eigenvalues --   -0.29172  -0.25757  -0.24658
 Alpha virt. eigenvalues --    0.01051   0.05893   0.08143   0.13733   0.15186
 Alpha virt. eigenvalues --    0.16769   0.17724   0.20799   0.22928   0.27453
 Alpha virt. eigenvalues --    0.30007   0.31049   0.34569   0.35562   0.38114

  Exact polarizability:  48.814   1.853  49.907  -0.011   0.003  21.815
 Approx polarizability:  81.045   1.347  82.905   0.000   0.000  30.974

                     1                      2                      3
                    A"                     A"                     A"
 Frequencies --   488.1585               619.2649               669.7952
 Red. masses --     1.7492                 2.5559                 2.7950
 Frc consts  --     0.2456                 0.5775                 0.7388
 IR Inten    --    61.7905                 0.0014                21.1722
 Raman Activ --     0.0000                 0.0000                 0.0000

                     4                      5                      6
                    A"                     A"                     ?A
 Frequencies --   764.5416               848.9762               895.5174
 Red. masses --     1.2102                 1.2149                 5.5053
 Frc consts  --     0.4168                 0.5159                 2.6012
 IR Inten    --   132.1383                23.5444                 8.7686
 Raman Activ --     0.0000                 0.0000                 0.0000

                     7                      8                      9
                    ?A                     A'                     A'
 Frequencies --   895.6167               908.7214              1037.0871
 Red. masses --     1.3148                 4.0782                 1.6650
 Frc consts  --     0.6214                 1.9842                 1.0551
 IR Inten    --     1.6748                 3.8833                43.3736
 Raman Activ --     0.0000                 0.0000                 0.0000

                    10                     11                     12
                    A'                     A'                     A'
 Frequencies --  1043.7554              1135.5366              1167.7093
 Red. masses --     1.3927                 1.7784                 2.8487
 Frc consts  --     0.8939                 1.3511                 2.2886
 IR Inten    --     9.4855                17.7743                 0.5922
 Raman Activ --     0.0000                 0.0000                 0.0000

                    13                     14                     15
                    A'                     A'                     A'
 Frequencies --  1263.0182              1373.8161              1430.5627
 Red. masses --     1.6605                 2.7690                 3.9373
 Frc consts  --     1.5607                 3.0791                 4.7475
 IR Inten    --     3.0200                 3.3052                12.9280
 Raman Activ --     0.0000                 0.0000                 0.0000

                    16                     17                     18
                    A'                     A'                     A'
 Frequencies --  1463.2097              1559.7110              3233.8608
 Red. masses --     2.6854                 3.2615                 1.0940
 Frc consts  --     3.3874                 4.6747                 6.7406
 IR Inten    --     9.3123                 6.9198                 5.6603
 Raman Activ --     0.0000                 0.0000                 0.0000

                    19                     20                     21
                    A'                     A'                     A'
 Frequencies --  3245.8666              3266.0708              3660.6015
 Red. masses --     1.0943                 1.1071                 1.0820
 Frc consts  --     6.7931                 6.9584                 8.5427
 IR Inten    --     2.7222                 1.3876                69.0995
 Raman Activ --     0.0000                 0.0000                 0.0000

 - Thermochemistry -
 -------------------
 Temperature   298.150 Kelvin.  Pressure   1.00000 Atm.
 Atom  1 has atomic number  1 and mass   1.00783

 Molecular mass:    68.03745 amu.
 Principal axes and moments of inertia in atomic units:
                           1         2         3
     EIGENVALUES --   191.77259 196.93909 388.71167
           X            0.92931   0.36929   0.00000
           Y           -0.36929   0.92931   0.00000
           Z            0.00000   0.00000   1.00000
 THIS MOLECULE IS AN ASYMMETRIC TOP.
 ROTATIONAL SYMMETRY NUMBER  1.
 ROTATIONAL TEMPERATURES (KELVIN)      0.45165     0.43980     0.22282
 ROTATIONAL CONSTANTS (GHZ)            9.41084     9.16396     4.64288
 Zero-point vibrational energy     185250.1 (Joules/Mol)
                                   44.27584 (Kcal/Mol)
 WARNING-- EXPLICIT CONSIDERATION OF   2 DEGREES OF FREEDOM AS
           VIBRATIONS MAY CAUSE SIGNIFICANT ERROR
 VIBRATIONAL TEMPERATURES:    702.35   890.98   963.68  1100.00  1221.48
          (KELVIN)           1288.44  1288.59  1307.44  1492.13  1501.72
                             1633.77  1680.06  1817.19  1976.60  2058.25
                             2105.22  2244.06  4652.78  4670.05  4699.12
                             5266.76

 Zero-point correction=                           0.070558 (Hartree/Particle)
 Thermal correction to Energy=                    0.074357
 Thermal correction to Enthalpy=                  0.075301
 Thermal correction to Gibbs Free Energy=         0.044228
 Sum of electronic and zero-point Energies=            -39.055460
 Sum of electronic and thermal Energies=               -39.051662
 Sum of electronic and thermal Enthalpies=             -39.050718
 Sum of electronic and thermal Free Energies=          -39.081791

                     E (Thermal)             CV                S
                      KCAL/MOL        CAL/MOL-KELVIN    CAL/MOL-KELVIN
 TOTAL                   46.659             13.574             65.399
 ELECTRONIC               0.000              0.000              0.000
 TRANSLATIONAL            0.889              2.981             38.570
 ROTATIONAL               0.889              2.981             24.200
 VIBRATIONAL             44.882              7.613              2.629
 VIBRATION  1             0.844              1.276              0.688
 VIBRATION  2             0.979              0.991              0.418
                       Q            LOG10(Q)             LN(Q)
 TOTAL BOT       0.453759D-20        -20.343175        -46.841891
 TOTAL V=0       0.129138D+13         12.111053         27.886730
 VIB (BOT)       0.474264D-32        -32.323979        -74.428713
 VIB (BOT)  1    0.340204D+00         -0.468261         -1.078211
 VIB (BOT)  2    0.236337D+00         -0.626468         -1.442496
 VIB (V=0)       0.134973D+01          0.130248          0.299907
 VIB (V=0)  1    0.110476D+01          0.043269          0.099631
 VIB (V=0)  2    0.105304D+01          0.022446          0.051683
 ELECTRONIC      0.100000D+01          0.000000          0.000000
 TRANSLATIONAL   0.220588D+08          7.343582         16.909224
 ROTATIONAL      0.433733D+05          4.637222         10.677599
 ***** Axes restored to original set *****
 -------------------------------------------------------------------
 Center     Atomic                   Forces (Hartrees/Bohr)
 Number     Number              X              Y              Z
 -------------------------------------------------------------------
    1          1          -0.000041759    0.000000000   -0.000058338
    2          6          -0.000013806    0.000000000    0.000423361
    3          1           0.000028253    0.000000000   -0.000056675
    4          6           0.000143701    0.000000000   -0.000064511
    5          1           0.000087418    0.000000000    0.000002992
    6          6          -0.000137554    0.000000000    0.000053708
    7          7           0.000032235    0.000000000   -0.000081306
    8          1          -0.000006075    0.000000000    0.000060350
    9          7          -0.000092413    0.000000000   -0.000279581
 -------------------------------------------------------------------
 Cartesian Forces:  Max     0.000423361 RMS     0.000112363

 GradGradGradGradGradGradGradGradGradGradGradGradGradGradGradGradGradGrad
 Berny optimization.
 Internal  Forces:  Max     0.000234913 RMS     0.000057866
 Search for a local minimum.
 Step number   1 out of a maximum of  48
 All quantities printed in internal units (Hartrees-Bohrs-Radians)
 Second derivative matrix not updated -- analytic derivatives used.
     Eigenvalues ---    0.00651   0.01197   0.01643   0.02848   0.05563
     Eigenvalues ---    0.05944   0.09119   0.10120   0.10827   0.11643
     Eigenvalues ---    0.21844   0.26139   0.34023   0.36476   0.37062
     Eigenvalues ---    0.37309   0.39328   0.41619   0.47401   0.48319
     Eigenvalues ---    0.553401000.000001000.000001000.000001000.00000
     Eigenvalues --- 1000.000001000.000001000.000001000.000001000.00000
     Eigenvalues --- 1000.000001000.000001000.000001000.000001000.00000
     Eigenvalues --- 1000.000001000.000001000.00000
 Angle between quadratic step and forces=  31.95 degrees.
 Linear search not attempted -- first point.
 Iteration  1 RMS(Cart)=  0.00015660 RMS(Int)=  0.00000004
 Iteration  2 RMS(Cart)=  0.00000004 RMS(Int)=  0.00000001
 Variable       Old X    -DE/DX   Delta X   Delta X   Delta X     New X
                                 (Linear)    (Quad)   (Total)
    R1        2.05836   0.00006   0.00000   0.00019   0.00019   2.05855
    R2        2.65323   0.00017   0.00000   0.00041   0.00041   2.65363
    R3        2.59498  -0.00023   0.00000  -0.00069  -0.00069   2.59429
    R4        2.05601   0.00006   0.00000   0.00015   0.00015   2.05616
    R5        2.71471  -0.00004   0.00000  -0.00006  -0.00006   2.71465
    R6        2.06126   0.00009   0.00000   0.00025   0.00025   2.06151
    R7        2.54355  -0.00006   0.00000  -0.00014  -0.00014   2.54341
    R8        2.57963   0.00002   0.00000   0.00016   0.00016   2.57979
    R9        1.92165   0.00004   0.00000   0.00009   0.00009   1.92174
    A1        2.30615  -0.00006   0.00000  -0.00059  -0.00059   2.30557
    A2        2.12477   0.00000   0.00000   0.00032   0.00032   2.12509
    A3        1.85226   0.00006   0.00000   0.00027   0.00027   1.85253
    A4        2.22319   0.00004   0.00000   0.00014   0.00014   2.22333
    A5        1.81646  -0.00007   0.00000  -0.00030  -0.00030   1.81617
    A6        2.24353   0.00003   0.00000   0.00016   0.00016   2.24369
    A7        2.24541   0.00000   0.00000  -0.00006  -0.00006   2.24535
    A8        1.95925  -0.00002   0.00000   0.00007   0.00007   1.95932
    A9        2.07853   0.00001   0.00000  -0.00001  -0.00001   2.07852
   A10        1.81483   0.00006   0.00000   0.00006   0.00006   1.81489
   A11        1.98198  -0.00003   0.00000  -0.00010  -0.00010   1.98188
   A12        2.22830   0.00005   0.00000   0.00047   0.00047   2.22877
   A13        2.07291  -0.00003   0.00000  -0.00037  -0.00037   2.07253
    D1        0.00000   0.00000   0.00000   0.00000   0.00000   0.00000
    D2        3.14159   0.00000   0.00000   0.00000   0.00000   3.14159
    D3        3.14159   0.00000   0.00000   0.00000   0.00000   3.14159
    D4        0.00000   0.00000   0.00000   0.00000   0.00000   0.00000
    D5        3.14159   0.00000   0.00000   0.00000   0.00000   3.14159
    D6        0.00000   0.00000   0.00000   0.00000   0.00000   0.00000
    D7        0.00000   0.00000   0.00000   0.00000   0.00000   0.00000
    D8        3.14159   0.00000   0.00000   0.00000   0.00000   3.14159
    D9        3.14159   0.00000   0.00000   0.00000   0.00000   3.14159
   D10        0.00000   0.00000   0.00000   0.00000   0.00000   0.00000
   D11        0.00000   0.00000   0.00000   0.00000   0.00000   0.00000
   D12        3.14159   0.00000   0.00000   0.00000   0.00000   3.14159
   D13        0.00000   0.00000   0.00000   0.00000   0.00000   0.00000
   D14        3.14159   0.00000   0.00000   0.00000   0.00000   3.14159
   D15        0.00000   0.00000   0.00000   0.00000   0.00000   0.00000
   D16        3.14159   0.00000   0.00000   0.00000   0.00000   3.14159
         Item               Value     Threshold  Converged?
 Maximum Force            0.000235     0.000450     YES
 RMS     Force            0.000058     0.000300     YES
 Maximum Displacement     0.000503     0.001800     YES
 RMS     Displacement     0.000157     0.001200     YES
 Predicted change in Energy=-2.052697D-07
 Optimization completed.
    -- Stationary point found.
                         ----------------------------
                         !   Optimized Parameters   !
                         ! (Angstroms and Degrees)  !
 ------------------------                            -------------------------
 ! Name  Definition              Value          Derivative Info.             !
 -----------------------------------------------------------------------------
 ! R1    R(1,2)                  1.0892         -DE/DX =    0.0001           !
 ! R2    R(2,4)                  1.404          -DE/DX =    0.0002           !
 ! R3    R(2,9)                  1.3732         -DE/DX =   -0.0002           !
 ! R4    R(3,4)                  1.088          -DE/DX =    0.0001           !
 ! R5    R(4,6)                  1.4366         -DE/DX =    0.               !
 ! R6    R(5,6)                  1.0908         -DE/DX =    0.0001           !
 ! R7    R(6,7)                  1.346          -DE/DX =   -0.0001           !
 ! R8    R(7,9)                  1.3651         -DE/DX =    0.               !
 ! R9    R(8,9)                  1.0169         -DE/DX =    0.               !
 ! A1    A(1,2,4)              132.1328         -DE/DX =   -0.0001           !
 ! A2    A(1,2,9)              121.7404         -DE/DX =    0.               !
 ! A3    A(4,2,9)              106.1268         -DE/DX =    0.0001           !
 ! A4    A(2,4,3)              127.3796         -DE/DX =    0.               !
 ! A5    A(2,4,6)              104.0757         -DE/DX =   -0.0001           !
 ! A6    A(3,4,6)              128.5447         -DE/DX =    0.               !
 ! A7    A(4,6,5)              128.6527         -DE/DX =    0.               !
 ! A8    A(4,6,7)              112.2566         -DE/DX =    0.               !
 ! A9    A(5,6,7)              119.0907         -DE/DX =    0.               !
 ! A10   A(6,7,9)              103.9819         -DE/DX =    0.0001           !
 ! A11   A(2,9,7)              113.5591         -DE/DX =    0.               !
 ! A12   A(2,9,8)              127.6721         -DE/DX =    0.0001           !
 ! A13   A(7,9,8)              118.7688         -DE/DX =    0.               !
 ! D1    D(1,2,4,3)              0.             -DE/DX =    0.               !
 ! D2    D(1,2,4,6)            180.             -DE/DX =    0.               !
 ! D3    D(9,2,4,3)            180.             -DE/DX =    0.               !
 ! D4    D(9,2,4,6)              0.             -DE/DX =    0.               !
 ! D5    D(1,2,9,7)            180.             -DE/DX =    0.               !
 ! D6    D(1,2,9,8)              0.             -DE/DX =    0.               !
 ! D7    D(4,2,9,7)              0.             -DE/DX =    0.               !
 ! D8    D(4,2,9,8)            180.             -DE/DX =    0.               !
 ! D9    D(2,4,6,5)            180.             -DE/DX =    0.               !
 ! D10   D(2,4,6,7)              0.             -DE/DX =    0.               !
 ! D11   D(3,4,6,5)              0.             -DE/DX =    0.               !
 ! D12   D(3,4,6,7)            180.             -DE/DX =    0.               !
 ! D13   D(4,6,7,9)              0.             -DE/DX =    0.               !
 ! D14   D(5,6,7,9)            180.             -DE/DX =    0.               !
 ! D15   D(6,7,9,2)              0.             -DE/DX =    0.               !
 ! D16   D(6,7,9,8)            180.             -DE/DX =    0.               !
 -----------------------------------------------------------------------------
 GradGradGradGradGradGradGradGradGradGradGradGradGradGradGradGradGradGrad

 1\1\GINC-INDIUM\Freq\RB3LYP\CEP-31G(d)\C3H4N2\RDJ3\12-Sep-2000\0\\#N G
 EOM=ALLCHECK GUESS=TCHECK RB3LYP/CEP-31G(D) FREQ\\1H pyrazole C3H4N2 c
 asno=288131\\0,1\H,-1.9060919744,0.,-1.1806625676\C,-0.9403887614,0.,-
 0.6768233105\H,0.6955841684,0.,-2.2043596987\C,0.3763069849,0.,-1.1642
 68002\H,2.2754732056,0.,0.10226303\C,1.1877172703,0.,0.0211939942\N,0.
 4476988945,0.,1.1454948715\H,-1.5974660109,0.,1.3713009267\N,-0.840107
 1673,0.,0.692714645\\Version=IBM-RS6000-G98RevA.6\State=1-A'\HF=-39.12
 60185\RMSD=2.116e-09\RMSF=1.124e-04\Dipole=-0.797587,0.,-0.4552659\Dip
 oleDeriv=-0.0173469,0.0000809,-0.0594547,-0.0000111,0.2320669,-0.00009
 7,-0.036955,0.0000451,0.0750967,0.1291745,0.0000102,-0.1422303,-0.0001
 075,-0.1527877,-0.0001608,-0.3267436,0.0000229,0.2614834,0.0993678,-0.
 000033,0.0327216,0.0000172,0.212726,-0.0001362,0.0381676,0.0000404,-0.
 0383639,-0.2449883,-0.0001669,0.0029218,-0.0000371,-0.2750751,0.000201
 2,-0.0365309,-0.0000287,-0.0530563,-0.063929,0.0002994,-0.0049428,-0.0
 000076,0.174655,-0.0000393,-0.037837,0.0000087,0.0864629,0.2245589,-0.
 0000441,0.07809,0.0000606,-0.0999727,0.0001066,0.1978571,-0.0001422,0.
 2468958,0.0263528,-0.0000183,-0.1819642,0.0000618,-0.213959,-0.0002396
 ,-0.0793246,0.0001508,-0.5916179,0.190317,0.0000487,-0.0413256,-0.0000
 487,0.3281853,-0.0001005,-0.0331127,-0.0000384,0.2014001,-0.3435058,-0
 .000177,0.3161841,0.0000724,-0.2058384,0.0004656,0.3144791,-0.0000587,
 -0.1883004\Polar=51.2838504,0.0049508,21.814798,-0.1832655,0.0103993,4
 7.4370781\PG=CS [SG(C3H4N2)]\NImag=0\\0.30119311,-0.00000103,0.0202292
 3,0.13236955,-0.00000105,0.11841890,-0.29742574,-0.00000142,-0.1139990
 5,0.84791269,0.00000327,-0.02547462,0.00000217,-0.00000079,0.11312810,
 -0.12359552,0.00000193,-0.11602916,0.08702574,0.00000241,0.62003696,0.
 00010622,-0.00000043,-0.00082593,0.00206388,0.00000125,0.02457918,0.07
 385662,0.00000015,-0.00245294,-0.00000001,-0.00000222,-0.00125581,0.00
 000145,0.00000066,0.02276352,0.00055066,-0.00000008,-0.00018710,-0.002
 46891,-0.00000242,0.00094647,-0.09221503,-0.00000181,0.34361208,-0.005
 30896,0.00000425,0.00878959,-0.34795927,-0.00000473,0.07821342,-0.0809
 2390,0.00000070,0.08661953,0.61291433,0.00000129,0.00104839,0.00000112
 ,0.00000159,-0.05961807,-0.00000106,-0.00000007,-0.02857948,0.00000140
 ,-0.00000161,0.11521106,-0.01402033,-0.00000050,0.01254012,0.10257411,
 0.00000271,-0.13842005,0.08390283,0.00000046,-0.33288275,-0.11769666,0
 .00000028,0.81743409,-0.00028323,-0.00000319,0.00009685,-0.00110627,0.
 00000597,-0.00053305,-0.00028389,0.00000122,-0.00055669,-0.00294145,-0
 .00000109,0.00348348,0.36613339,0.00000074,0.00076806,0.00000095,0.000
 00051,0.00478748,-0.00000143,0.00000014,-0.00168303,0.00000028,-0.0000
 0381,0.00059725,-0.00000107,0.00000439,0.02430016,-0.00100800,0.000000
 41,0.00124755,-0.00325514,-0.00000035,-0.00619703,0.00083509,-0.000000
 02,0.00000606,-0.02009330,-0.00000029,0.00695303,0.02273141,-0.0000003
 9,0.05442094,-0.00446641,0.00000595,0.00482286,-0.05083059,-0.00000070
 ,-0.00201433,0.01314346,0.00000185,0.01096979,-0.17798968,-0.00000374,
 -0.10704820,-0.34783580,-0.00000305,-0.03473312,0.86243396,-0.00000108
 ,0.00510944,-0.00000099,-0.00000025,0.00881494,-0.00000064,-0.00000049
 ,-0.00189981,0.00000105,0.00000289,-0.06154693,-0.00000142,-0.00000463
 ,-0.03029207,0.00000033,0.00000155,0.13181467,0.00052268,-0.00000688,-
 0.00275274,-0.06439910,-0.00000343,0.03643124,-0.01404661,-0.00000238,
 -0.00822994,-0.07616360,0.00000511,-0.23243279,-0.02617953,0.00000422,
 -0.05922018,-0.00300705,0.00000133,0.59829530,0.00055390,0.00000075,0.
 00070628,-0.05240632,-0.00000220,-0.04498188,-0.00205697,0.00000058,-0
 .00119420,0.02688211,-0.00000179,0.03753561,-0.01302811,-0.00000054,0.
 02750553,-0.17689287,0.00000115,0.14060277,0.48468849,-0.00000413,0.00
 599293,-0.00000334,0.00000166,0.01526307,0.00000141,-0.00000036,0.0061
 5767,-0.00000245,0.00000362,0.01872116,0.00000397,0.00000022,-0.007340
 22,0.00000088,0.00000375,-0.06674460,-0.00001247,0.00000331,0.09678955
 ,0.00195206,0.00000573,-0.00537402,-0.01663670,0.00000334,-0.06229618,
 -0.00605903,0.00000317,-0.00389203,-0.03094511,-0.00000641,-0.07256008
 ,-0.00154515,-0.00000256,0.00636865,0.10845717,-0.00000154,-0.29849931
 ,-0.05103728,0.00001226,0.53920844,-0.00015218,0.00000121,0.00053551,0
 .00967409,0.00000187,-0.00566577,0.00075195,0.00000051,-0.00009035,0.0
 0192217,0.00000025,-0.00317458,-0.00039283,-0.00000010,0.00161207,-0.0
 0763988,-0.00000030,-0.00530440,-0.01844458,-0.00000397,0.02343154,0.2
 9133827,0.00000002,-0.00134198,-0.00000030,0.00000104,-0.00819134,0.00
 000074,-0.00000060,0.00231132,0.00000060,-0.00000017,0.00283076,0.0000
 0064,0.00000130,0.00227665,0.00000034,0.00000083,0.00378578,-0.0000047
 4,0.00000022,-0.01210085,0.00000356,0.00000033,0.01127401,-0.00056874,
 -0.00000033,0.00021370,0.02360224,-0.00000215,-0.00571756,0.00127965,-
 0.00000074,0.00025937,-0.00233897,-0.00000007,-0.00677664,-0.00061543,
 -0.00000005,0.00101429,-0.00579708,0.00000066,0.00084787,-0.00966021,0
 .00000239,0.01557008,-0.20542100,-0.00000007,0.24765521,0.00578328,-0.
 00000608,-0.03249565,-0.10992246,-0.00000395,-0.01302778,-0.00665738,-
 0.00000345,-0.00161480,-0.02659537,0.00000518,0.01444375,-0.00026180,0
 .00000172,0.00640546,-0.10992221,0.00000116,0.04797483,-0.24929563,-0.
 00000410,-0.02761749,-0.27705702,-0.00000297,0.19951954,0.77392859,0.0
 0000076,-0.00387851,0.00000145,-0.00000012,-0.04745375,-0.00000481,-0.
 00000010,0.00463855,0.00000342,-0.00000114,0.01133586,-0.00000505,-0.0
 0000419,0.00658571,-0.00000091,-0.00000645,0.01095856,0.00001925,-0.00
 000146,-0.05673871,-0.00001756,0.00000021,-0.00084436,0.00000036,0.000
 01248,0.07539664,0.00379764,0.00000077,-0.00807726,-0.01244320,-0.0000
 0229,-0.32875468,0.00254985,-0.00000011,0.00036785,0.07361512,-0.00000
 007,-0.05385493,0.00311812,0.00000005,-0.00459328,0.02834993,0.0000012
 4,-0.03443946,-0.09947662,-0.00000265,-0.11852555,0.19407700,-0.000000
 78,-0.25306630,-0.19358784,0.00000385,0.80094362\\0.00004176,0.,0.0000
 5834,0.00001381,0.,-0.00042336,-0.00002825,0.,0.00005668,-0.00014370,0
 .,0.00006451,-0.00008742,0.,-0.00000299,0.00013755,0.,-0.00005371,-0.0
 0003224,0.,0.00008131,0.00000608,0.,-0.00006035,0.00009241,0.,0.000279
 58\\\@

 YOU KNOW YOU'RE A TEACHER WHEN YOU SAY 2, WRITE 3, AND MEAN 4.
 -- RONALD ANSTROM, HIGH SCHOOL TEACHER, UNDERWOOD, N.D. 1974
 Job cpu time:  0 days  0 hours  6 minutes 54.0 seconds.
 File lengths (MBytes):  RWF=   17 Int=    0 D2E=    0 Chk=    8 Scr=    1
 Normal termination of Gaussian 98.
