 Gaussian 98, Revision A.4,
 Gaussian 98:  x86-Linux-G98RevA.4 11-Sep-1998

 ------------------------
 #B3LYP/CEP-121G opt freq
 ------------------------

 -------------------------------
 1H pyrazole C3H4N2 casno=288131
 -------------------------------
 Symbolic Z-matrix:
 Charge =  0 Multiplicity = 1

 SCF Done:  E(RB+HF-LYP) =  -38.9755270271     A.U. after   16 cycles
 SCF Done:  E(RB+HF-LYP) =  -39.0479120302     A.U. after   14 cycles
 SCF Done:  E(RB+HF-LYP) =  -39.0695140362     A.U. after   15 cycles
 SCF Done:  E(RB+HF-LYP) =  -39.0699896934     A.U. after   13 cycles
 SCF Done:  E(RB+HF-LYP) =  -39.0701611966     A.U. after   11 cycles
 SCF Done:  E(RB+HF-LYP) =  -39.0701831877     A.U. after    9 cycles
 SCF Done:  E(RB+HF-LYP) =  -39.0701862169     A.U. after    8 cycles
 Optimization completed.
    -- Stationary point found.
 Normal termination of Gaussian 98.

 --------------------------------------------------
 #N Geom=AllCheck Guess=TCheck RB3LYP/CEP-121G Freq
 --------------------------------------------------

 1H pyrazole C3H4N2 casno=288131
 -------------------------------
 Redundant internal coordinates taken from checkpointfile:
 /wrk/rdj3/Gau-2998.chk
 Charge =  0 Multiplicity = 1

                         Standard orientation:
 ---------------------------------------------------------------------
 Center     Atomic     Atomic              Coordinates (Angstroms)
 Number     Number      Type              X           Y           Z
 ---------------------------------------------------------------------
    1          1             0        2.126265    0.709486    0.000000
    2          6             0        1.125977    0.299461    0.000000
    3          1             0        1.263446   -1.921923    0.000000
    4          6             0        0.664619   -1.022926    0.000000
    5          1             0       -1.503305   -1.713579    0.000000
    6          6             0       -0.766370   -0.922383    0.000000
    7          7             0       -1.186729    0.373982    0.000000
    8          1             0       -0.049666    2.113446    0.000000
    9          7             0        0.000000    1.105210    0.000000
 ---------------------------------------------------------------------

 SCF Done:  E(RB+HF-LYP) =  -39.0701862169     A.U. after    1 cycles

  The electronic state is 1-A'.
 Alpha  occ. eigenvalues --   -1.04934  -0.83338  -0.79075  -0.62480  -0.60149
 Alpha  occ. eigenvalues --   -0.55345  -0.45596  -0.43714  -0.43429  -0.41364
 Alpha  occ. eigenvalues --   -0.29003  -0.26850  -0.25475
 Alpha virt. eigenvalues --   -0.00184   0.03106   0.05248   0.06899   0.08072
 Alpha virt. eigenvalues --    0.09798   0.15721   0.17852   0.19375   0.20721
 Alpha virt. eigenvalues --    0.30019   0.30079   0.32555   0.34686   0.34715

  Exact polarizability:  50.686   1.992  51.433   0.000   0.006  23.550
 Approx polarizability:  82.079   1.098  83.312   0.000   0.000  30.644

                     1                      2                      3
                    A"                     A"                     A"
 Frequencies --   582.6608               633.3957               669.8330
 Red. masses --     2.7784                 2.1643                 1.9020
 Frc consts  --     0.5558                 0.5116                 0.5028
 IR Inten    --    54.9820                 6.6258                48.1574
 Raman Activ --     0.0000                 0.0000                 0.0000

                     4                      5                      6
                    A"                     A"                     A"
 Frequencies --   768.0517               860.2713               902.7364
 Red. masses --     1.2021                 1.2383                 1.3359
 Frc consts  --     0.4178                 0.5399                 0.6414
 IR Inten    --   120.3826                15.3011                 2.7823
 Raman Activ --     0.0000                 0.0000                 0.0000

                     7                      8                      9
                    A'                     A'                     A'
 Frequencies --   913.2798               924.0846              1012.4815
 Red. masses --     5.1553                 5.2420                 2.1845
 Frc consts  --     2.5335                 2.6374                 1.3194
 IR Inten    --    12.8829                 3.0544                37.2527
 Raman Activ --     0.0000                 0.0000                 0.0000

                    10                     11                     12
                    A'                     A'                     A'
 Frequencies --  1053.7876              1124.7726              1147.4030
 Red. masses --     1.4741                 2.3466                 1.9791
 Frc consts  --     0.9645                 1.7492                 1.5351
 IR Inten    --     7.6281                20.5448                 0.7478
 Raman Activ --     0.0000                 0.0000                 0.0000

                    13                     14                     15
                    A'                     A'                     A'
 Frequencies --  1255.0908              1356.9433              1398.9812
 Red. masses --     2.1398                 2.0944                 2.9995
 Frc consts  --     1.9859                 2.2721                 3.4588
 IR Inten    --     1.8933                 3.6973                11.0555
 Raman Activ --     0.0000                 0.0000                 0.0000

                    16                     17                     18
                    A'                     A'                     A'
 Frequencies --  1443.1748              1535.8497              3234.3038
 Red. masses --     2.3694                 2.4369                 1.0915
 Frc consts  --     2.9076                 3.3867                 6.7273
 IR Inten    --    11.5059                 9.7719                 1.5921
 Raman Activ --     0.0000                 0.0000                 0.0000

                    19                     20                     21
                    A'                     A'                     A'
 Frequencies --  3243.3789              3265.1018              3671.4830
 Red. masses --     1.0987                 1.1109                 1.0834
 Frc consts  --     6.8095                 6.9777                 8.6044
 IR Inten    --     8.4645                 3.0123                56.7376
 Raman Activ --     0.0000                 0.0000                 0.0000

 - Thermochemistry -
 -------------------
 Temperature   298.150 Kelvin.  Pressure   1.00000 Atm.
 Atom  1 has atomic number  1 and mass   1.00783

 Molecular mass:    68.03745 amu.
 Principal axes and moments of inertia in atomic units:
                           1         2         3
     EIGENVALUES --   194.72159 198.93222 393.65381
           X            0.97061   0.24065   0.00000
           Y           -0.24065   0.97061   0.00000
           Z            0.00000   0.00000   1.00000
 THIS MOLECULE IS AN ASYMMETRIC TOP.
 ROTATIONAL SYMMETRY NUMBER  1.
 ROTATIONAL TEMPERATURES (KELVIN)      0.44481     0.43539     0.22002
 ROTATIONAL CONSTANTS (GHZ)            9.26832     9.07214     4.58459
 Zero-point vibrational energy     185403.6 (Joules/Mol)
                                   44.31254 (Kcal/Mol)
 WARNING-- EXPLICIT CONSIDERATION OF   1 DEGREES OF FREEDOM AS
           VIBRATIONS MAY CAUSE SIGNIFICANT ERROR
 VIBRATIONAL TEMPERATURES:    838.31   911.31   963.73  1105.05  1237.73
          (KELVIN)           1298.83  1314.00  1329.54  1456.73  1516.16
                             1618.29  1650.85  1805.79  1952.33  2012.81
                             2076.39  2209.73  4653.41  4666.47  4697.73
                             5282.41

 Zero-point correction=                           0.070617 (Hartree/Particle)
 Thermal correction to Energy=                    0.074340
 Thermal correction to Enthalpy=                  0.075284
 Thermal correction to Gibbs Free Energy=         0.044309
 Sum of electronic and zero-point Energies=            -38.999570
 Sum of electronic and thermal Energies=               -38.995846
 Sum of electronic and thermal Enthalpies=             -38.994902
 Sum of electronic and thermal Free Energies=          -39.025877

                     E (Thermal)             CV                S
                      KCAL/MOL        CAL/MOL-KELVIN    CAL/MOL-KELVIN
 TOTAL                   46.649             13.333             65.193
 ELECTRONIC               0.000              0.000              0.000
 TRANSLATIONAL            0.889              2.981             38.570
 ROTATIONAL               0.889              2.981             24.237
 VIBRATIONAL             44.872              7.371              2.385
 VIBRATION  1             0.939              1.069              0.480
                       Q            LOG10(Q)             LN(Q)
 TOTAL BOT       0.416272D-20        -20.380623        -46.928119
 TOTAL V=0       0.126038D+13         12.100501         27.862433
 VIB (BOT)       0.426902D-32        -32.369672        -74.533923
 VIB (BOT)  1    0.260833D+00         -0.583638         -1.343876
 VIB (V=0)       0.129256D+01          0.111452          0.256629
 VIB (V=0)  1    0.106394D+01          0.026919          0.061983
 ELECTRONIC      0.100000D+01          0.000000          0.000000
 TRANSLATIONAL   0.220588D+08          7.343582         16.909224
 ROTATIONAL      0.442045D+05          4.645466         10.696581
 ***** Axes restored to original set *****
 -------------------------------------------------------------------
 Center     Atomic                   Forces (Hartrees/Bohr)
 Number     Number              X              Y              Z
 -------------------------------------------------------------------
    1          1          -0.000038255    0.000000000   -0.000077399
    2          6          -0.000107507    0.000000000    0.000651699
    3          1           0.000013458    0.000000000   -0.000080532
    4          6           0.000289511    0.000000000   -0.000119504
    5          1           0.000094816    0.000000000   -0.000001651
    6          6          -0.000154110    0.000000000    0.000091382
    7          7          -0.000107342    0.000000000   -0.000161853
    8          1          -0.000025241    0.000000000    0.000059484
    9          7           0.000034670    0.000000000   -0.000361626
 -------------------------------------------------------------------
 Cartesian Forces:  Max     0.000651699 RMS     0.000168155

 GradGradGradGradGradGradGradGradGradGradGradGradGradGradGradGradGradGrad
 Berny optimization.
 Internal  Forces:  Max     0.000368960 RMS     0.000090170
 Search for a local minimum.
 Step number   1 out of a maximum of  48
 All quantities printed in internal units (Hartrees-Bohrs-Radians)
 Second derivative matrix not updated -- analytic derivatives used.
     Eigenvalues ---    0.00891   0.01250   0.01704   0.02814   0.05693
     Eigenvalues ---    0.06095   0.09395   0.10326   0.10916   0.11900
     Eigenvalues ---    0.21906   0.25483   0.31817   0.35830   0.36776
     Eigenvalues ---    0.37035   0.37421   0.40988   0.46766   0.48126
     Eigenvalues ---    0.528961000.000001000.000001000.000001000.00000
     Eigenvalues --- 1000.000001000.000001000.000001000.000001000.00000
     Eigenvalues --- 1000.000001000.000001000.000001000.000001000.00000
     Eigenvalues --- 1000.000001000.000001000.00000
 Angle between quadratic step and forces=  29.65 degrees.
 Linear search not attempted -- first point.
 Iteration  1 RMS(Cart)=  0.00023102 RMS(Int)=  0.00000007
 Iteration  2 RMS(Cart)=  0.00000008 RMS(Int)=  0.00000002
 Variable       Old X    -DE/DX   Delta X   Delta X   Delta X     New X
                                 (Linear)    (Quad)   (Total)
    R1        2.04291   0.00007   0.00000   0.00021   0.00021   2.04312
    R2        2.64667   0.00028   0.00000   0.00077   0.00077   2.64744
    R3        2.61647  -0.00037   0.00000  -0.00111  -0.00111   2.61536
    R4        2.04125   0.00008   0.00000   0.00020   0.00020   2.04145
    R5        2.71084  -0.00006   0.00000  -0.00009  -0.00009   2.71076
    R6        2.04323   0.00009   0.00000   0.00026   0.00026   2.04349
    R7        2.57535  -0.00007   0.00000  -0.00013  -0.00013   2.57522
    R8        2.63413  -0.00010   0.00000  -0.00022  -0.00022   2.63391
    R9        1.90760   0.00006   0.00000   0.00011   0.00011   1.90771
    A1        2.29549  -0.00009   0.00000  -0.00085  -0.00085   2.29465
    A2        2.13146   0.00001   0.00000   0.00054   0.00054   2.13199
    A3        1.85624   0.00008   0.00000   0.00031   0.00031   1.85655
    A4        2.21830   0.00005   0.00000  -0.00008  -0.00008   2.21822
    A5        1.83633  -0.00013   0.00000  -0.00049  -0.00049   1.83584
    A6        2.22856   0.00008   0.00000   0.00057   0.00057   2.22912
    A7        2.25056   0.00001   0.00000  -0.00006  -0.00006   2.25050
    A8        1.95450  -0.00004   0.00000   0.00001   0.00001   1.95451
    A9        2.07813   0.00003   0.00000   0.00005   0.00005   2.07817
   A10        1.80946   0.00010   0.00000   0.00016   0.00016   1.80962
   A11        1.96825  -0.00001   0.00000   0.00000   0.00000   1.96825
   A12        2.24114   0.00004   0.00000   0.00032   0.00032   2.24146
   A13        2.07380  -0.00002   0.00000  -0.00032  -0.00032   2.07348
    D1        0.00000   0.00000   0.00000   0.00000   0.00000   0.00000
    D2        3.14159   0.00000   0.00000   0.00000   0.00000   3.14159
    D3        3.14159   0.00000   0.00000   0.00000   0.00000   3.14159
    D4        0.00000   0.00000   0.00000   0.00000   0.00000   0.00000
    D5        3.14159   0.00000   0.00000   0.00000   0.00000   3.14159
    D6        0.00000   0.00000   0.00000   0.00000   0.00000   0.00000
    D7        0.00000   0.00000   0.00000   0.00000   0.00000   0.00000
    D8        3.14159   0.00000   0.00000   0.00000   0.00000   3.14159
    D9        3.14159   0.00000   0.00000   0.00000   0.00000   3.14159
   D10        0.00000   0.00000   0.00000   0.00000   0.00000   0.00000
   D11        0.00000   0.00000   0.00000   0.00000   0.00000   0.00000
   D12       -3.14159   0.00000   0.00000   0.00000   0.00000  -3.14159
   D13        0.00000   0.00000   0.00000   0.00000   0.00000   0.00000
   D14        3.14159   0.00000   0.00000   0.00000   0.00000   3.14159
   D15        0.00000   0.00000   0.00000   0.00000   0.00000   0.00000
   D16        3.14159   0.00000   0.00000   0.00000   0.00000   3.14159
         Item               Value     Threshold  Converged?
 Maximum Force            0.000369     0.000450     YES
 RMS     Force            0.000090     0.000300     YES
 Maximum Displacement     0.000857     0.001800     YES
 RMS     Displacement     0.000231     0.001200     YES
 Predicted change in Energy=-4.809938D-07
 Optimization completed.
    -- Stationary point found.
                         ----------------------------
                         !   Optimized Parameters   !
                         ! (Angstroms and Degrees)  !
 ------------------------                            -------------------------
 ! Name  Definition              Value          Derivative Info.             !
 -----------------------------------------------------------------------------
 ! R1    R(1,2)                  1.0811         -DE/DX =    0.0001           !
 ! R2    R(2,4)                  1.4006         -DE/DX =    0.0003           !
 ! R3    R(2,9)                  1.3846         -DE/DX =   -0.0004           !
 ! R4    R(3,4)                  1.0802         -DE/DX =    0.0001           !
 ! R5    R(4,6)                  1.4345         -DE/DX =   -0.0001           !
 ! R6    R(5,6)                  1.0812         -DE/DX =    0.0001           !
 ! R7    R(6,7)                  1.3628         -DE/DX =   -0.0001           !
 ! R8    R(7,9)                  1.3939         -DE/DX =   -0.0001           !
 ! R9    R(8,9)                  1.0095         -DE/DX =    0.0001           !
 ! A1    A(1,2,4)              131.522          -DE/DX =   -0.0001           !
 ! A2    A(1,2,9)              122.1234         -DE/DX =    0.               !
 ! A3    A(4,2,9)              106.3546         -DE/DX =    0.0001           !
 ! A4    A(2,4,3)              127.0992         -DE/DX =    0.               !
 ! A5    A(2,4,6)              105.2139         -DE/DX =   -0.0001           !
 ! A6    A(3,4,6)              127.6868         -DE/DX =    0.0001           !
 ! A7    A(4,6,5)              128.9473         -DE/DX =    0.               !
 ! A8    A(4,6,7)              111.9848         -DE/DX =    0.               !
 ! A9    A(5,6,7)              119.0678         -DE/DX =    0.               !
 ! A10   A(6,7,9)              103.6744         -DE/DX =    0.0001           !
 ! A11   A(2,9,7)              112.7723         -DE/DX =    0.               !
 ! A12   A(2,9,8)              128.4076         -DE/DX =    0.               !
 ! A13   A(7,9,8)              118.8201         -DE/DX =    0.               !
 ! D1    D(1,2,4,3)              0.             -DE/DX =    0.               !
 ! D2    D(1,2,4,6)            180.             -DE/DX =    0.               !
 ! D3    D(9,2,4,3)            180.             -DE/DX =    0.               !
 ! D4    D(9,2,4,6)              0.             -DE/DX =    0.               !
 ! D5    D(1,2,9,7)            180.             -DE/DX =    0.               !
 ! D6    D(1,2,9,8)              0.             -DE/DX =    0.               !
 ! D7    D(4,2,9,7)              0.             -DE/DX =    0.               !
 ! D8    D(4,2,9,8)            180.             -DE/DX =    0.               !
 ! D9    D(2,4,6,5)            180.             -DE/DX =    0.               !
 ! D10   D(2,4,6,7)              0.             -DE/DX =    0.               !
 ! D11   D(3,4,6,5)              0.             -DE/DX =    0.               !
 ! D12   D(3,4,6,7)           -180.             -DE/DX =    0.               !
 ! D13   D(4,6,7,9)              0.             -DE/DX =    0.               !
 ! D14   D(5,6,7,9)            180.             -DE/DX =    0.               !
 ! D15   D(6,7,9,2)              0.             -DE/DX =    0.               !
 ! D16   D(6,7,9,8)            180.             -DE/DX =    0.               !
 -----------------------------------------------------------------------------
 GradGradGradGradGradGradGradGradGradGradGradGradGradGradGradGradGradGrad

 1\1\GINC-QCHEM6\Freq\RB3LYP\CEP-121G\C3H4N2\RDJ3\06-Oct-2000\0\\#N GEO
 M=ALLCHECK GUESS=TCHECK RB3LYP/CEP-121G FREQ\\1H pyrazole C3H4N2 casno
 =288131\\0,1\H,-1.8933204713,0.,-1.1998801663\C,-0.9435142956,0.,-0.68
 35794901\H,0.6914959809,0.,-2.1936087178\C,0.3729944874,0.,-1.16145208
 08\H,2.2780369113,0.,0.0826174401\C,1.1991608584,0.,0.0112747384\N,0.4
 598910108,0.,1.1561522725\H,-1.6068180254,0.,1.3737738703\N,-0.8566827
 301,0.,0.6982727082\\Version=x86-Linux-G98RevA.4\State=1-A'\HF=-39.070
 1862\RMSD=7.177e-09\RMSF=1.682e-04\Dipole=-0.8309908,0.,-0.5361971\Dip
 oleDeriv=-0.020034,0.0000041,-0.0664296,-0.000061,0.2171356,-0.0000555
 ,-0.0560363,0.0000163,0.0694471,0.1404069,0.0000379,-0.1452645,0.00013
 21,-0.1252087,0.0007375,-0.3320838,-0.0001827,0.2470165,0.1019,0.00006
 05,0.0413392,0.0000422,0.1946946,0.0000379,0.0392972,-0.0001354,-0.060
 5435,-0.2618421,-0.0001062,-0.0021827,-0.0002635,-0.2090737,-0.0002023
 ,-0.0424899,0.0001409,-0.0101395,-0.0627289,0.0000047,-0.0092683,0.000
 2307,0.1749228,-0.0002853,-0.0247106,0.0000122,0.0931487,0.2207647,-0.
 0002726,0.0942897,-0.0001426,-0.1308404,0.0007188,0.2108007,0.0002701,
 0.160374,0.0880758,0.0005301,-0.169985,0.0003298,-0.2114672,-0.0010183
 ,-0.0657817,-0.0001702,-0.4900149,0.1850228,-0.0000738,-0.0136994,-0.0
 000375,0.36192,0.0000156,-0.0126402,0.0000441,0.2019254,-0.3915655,-0.
 0001845,0.2712003,-0.0002304,-0.2720827,0.0000517,0.2836442,0.0000046,
 -0.2112135\Polar=53.0861517,-0.004604,23.5501111,0.0361019,0.0034927,4
 9.032573\PG=CS [SG(C3H4N2)]\NImag=0\\0.29510304,0.00000145,0.02093072,
 0.13429374,0.00000088,0.12427090,-0.29476933,-0.00000003,-0.11975985,0
 .83492996,0.00000287,-0.02689818,0.00000191,-0.00000281,0.11855150,-0.
 12849401,0.00000024,-0.12097954,0.10377321,-0.00000528,0.60501025,0.00
 011252,0.00000034,-0.00080137,0.00199397,-0.00000226,0.02615980,0.0764
 4219,0.00000136,-0.00277532,0.00000122,0.00000344,-0.00085845,-0.00000
 122,-0.00000108,0.02286977,0.00071771,-0.00000110,-0.00010891,-0.00745
 767,0.00000265,0.00135622,-0.09168206,0.00000334,0.34147278,-0.0033555
 0,-0.00000185,0.01171701,-0.32954521,-0.00000281,0.06990066,-0.0817483
 6,-0.00000068,0.08796799,0.59255983,-0.00000383,0.00144350,-0.00000295
 ,-0.00000339,-0.06261178,0.00001349,0.00000198,-0.02857914,-0.00000360
 ,0.00000439,0.11923448,-0.01616915,0.00000232,0.01141983,0.09172023,-0
 .00000523,-0.13598800,0.08499440,-0.00000055,-0.33413941,-0.12053637,-
 0.00000533,0.80980522,-0.00034670,-0.00000043,0.00019991,-0.00001286,-
 0.00000461,-0.00056195,-0.00017069,-0.00000168,-0.00059082,-0.00175302
 ,0.00001059,0.00706367,0.36765416,0.00000020,0.00063326,0.00000055,0.0
 0000482,0.00489555,-0.00000769,0.00000035,-0.00173814,0.00000027,0.000
 00002,0.00077335,0.00000890,-0.00000517,0.02446502,-0.00105397,0.00000
 010,0.00103629,-0.00294980,-0.00000166,-0.00596789,0.00084398,0.000000
 48,0.00008482,-0.02142320,0.00000093,0.00664485,0.01911920,0.00000051,
 0.05530993,-0.00379504,0.00000461,0.00479176,-0.05728130,-0.00000853,-
 0.00553516,0.01154277,-0.00000259,0.01373811,-0.17285637,0.00000016,-0
 .09559982,-0.35441164,-0.00000013,-0.03092419,0.85696174,0.00000263,0.
 00575289,0.00000199,-0.00000352,0.00955357,-0.00001062,-0.00000111,-0.
 00205761,-0.00000095,-0.00000943,-0.06438022,-0.00000960,-0.00000329,-
 0.03085961,-0.00000166,-0.00000707,0.13481373,0.00089319,-0.00000502,-
 0.00219609,-0.06178639,0.00003125,0.03197436,-0.01743118,-0.00000096,-
 0.00660958,-0.06700777,-0.00001002,-0.21812158,-0.02179709,-0.00000948
 ,-0.05830941,0.00097887,0.00004277,0.55462141,0.00101528,-0.00000324,0
 .00127482,-0.05194252,-0.00000733,-0.04395445,-0.00220271,0.00000089,-
 0.00101085,0.02228887,0.00000076,0.03092546,-0.01154115,0.00000871,0.0
 2852459,-0.16386067,-0.00000038,0.13237702,0.44033655,-0.00000010,0.00
 539711,0.00000050,0.00001112,0.01603517,-0.00000283,-0.00000064,0.0060
 5537,0.00000656,0.00000498,0.01995287,0.00001349,-0.00000539,-0.006802
 13,0.00000210,0.00001061,-0.06710412,-0.00004899,0.00000911,0.09491116
 ,0.00293962,0.00000384,-0.00430643,-0.01906164,-0.00003052,-0.06492224
 ,-0.00563152,-0.00000438,-0.00260823,-0.03012696,0.00001701,-0.0763265
 4,-0.00535403,0.00000316,0.00503341,0.08691771,-0.00003282,-0.26541634
 ,-0.05012966,0.00003169,0.50095629,-0.00018483,-0.00000103,0.00058789,
 0.01023711,-0.00000293,-0.00980761,0.00067650,-0.00000072,0.00007486,0
 .00170545,0.00001145,-0.00356759,-0.00046063,-0.00000554,0.00157046,-0
 .00715948,-0.00000875,-0.00562806,-0.01582044,-0.00000358,0.02617518,0
 .29378304,-0.00000103,-0.00125746,-0.00000056,-0.00000144,-0.00629310,
 -0.00000016,0.00000046,0.00197872,-0.00000095,-0.00000073,0.00349339,-
 0.00000410,0.00000174,0.00200472,-0.00000018,-0.00000383,0.00395964,0.
 00000925,0.00000670,-0.00986739,-0.00000346,0.00000007,0.01432338,-0.0
 0086588,0.00000103,-0.00005668,0.02590177,0.00000193,-0.00402376,0.001
 24441,0.00000044,-0.00002609,-0.00272508,-0.00000852,-0.00620406,-0.00
 036105,0.00000414,0.00111738,-0.00719060,0.00000581,0.00046248,-0.0142
 7285,0.00000327,0.01396049,-0.20490113,-0.00000038,0.25065849,0.006220
 56,0.00000017,-0.03230392,-0.11360983,0.00002841,-0.01148050,-0.006646
 18,0.00000105,-0.00175727,-0.02729570,-0.00002211,0.02116919,0.0010425
 1,-0.00000326,0.00629293,-0.10914002,0.00003092,0.03940140,-0.21827321
 ,-0.00002610,-0.00572871,-0.28277673,-0.00000194,0.20317041,0.75047859
 ,-0.00000355,-0.00322650,-0.00000354,-0.00000819,-0.05237428,0.0000140
 5,0.00000195,0.00510481,-0.00000620,0.00000610,0.01067355,0.00000009,0
 .00000825,0.00662797,-0.00000061,0.00000677,0.01032173,-0.00000879,-0.
 00001521,-0.05857804,0.00001549,0.00001102,-0.00834190,-0.00000771,-0.
 00000713,0.08979267,0.00773873,-0.00000229,-0.00907938,-0.01037986,0.0
 0000496,-0.30645940,0.00230354,0.00000163,0.00057840,0.07223371,-0.000
 00101,-0.05709032,0.00228216,-0.00000035,-0.00494938,0.03282333,0.0000
 0507,-0.03640526,-0.08373408,-0.00000580,-0.10637040,0.19549600,0.0000
 0055,-0.25588826,-0.21876353,-0.00000276,0.77566401\\0.00003826,0.,0.0
 0007740,0.00010751,0.,-0.00065170,-0.00001346,0.,0.00008053,-0.0002895
 1,0.,0.00011950,-0.00009482,0.,0.00000165,0.00015411,0.,-0.00009138,0.
 00010734,0.,0.00016185,0.00002524,0.,-0.00005948,-0.00003467,0.,0.0003
 6163\\\@

 ERROR IS THE FORCE THAT WELDS MEN TOGETHER....
 TRUTH IS COMMUNICATED TO MEN ONLY BY DEEDS OF TRUTH.
           TOLSTOI,MY RELIGION
 Job cpu time:  0 days  0 hours 20 minutes 54.3 seconds.
 File lengths (MBytes):  RWF=   17 Int=    0 D2E=    0 Chk=    8 Scr=    1
 Normal termination of Gaussian 98.
