 Gaussian 98, Revision A.6,
 Gaussian 98:  IBM-RS6000-G98RevA.6 19-Oct-1998

 -------------------
 #B3LYP/SDD opt freq
 -------------------

 -------------------------------
 1H pyrazole C3H4N2 casno=288131
 -------------------------------
 Symbolic Z-matrix:
 Charge =  0 Multiplicity = 1

 SCF Done:  E(RB+HF-LYP) =  -226.071989604     A.U. after   16 cycles
 SCF Done:  E(RB+HF-LYP) =  -226.140850876     A.U. after   14 cycles
 SCF Done:  E(RB+HF-LYP) =  -226.159300091     A.U. after   14 cycles
 SCF Done:  E(RB+HF-LYP) =  -226.159690924     A.U. after   12 cycles
 SCF Done:  E(RB+HF-LYP) =  -226.159832074     A.U. after   11 cycles
 SCF Done:  E(RB+HF-LYP) =  -226.159846063     A.U. after    9 cycles
 SCF Done:  E(RB+HF-LYP) =  -226.159848559     A.U. after    8 cycles
 Optimization completed.
    -- Stationary point found.
 Normal termination of Gaussian 98.

 ---------------------------------------------
 #N Geom=AllCheck Guess=TCheck RB3LYP/SDD Freq
 ---------------------------------------------

 1H pyrazole C3H4N2 casno=288131
 -------------------------------
 Redundant internal coordinates taken from checkpointfile:
 /wrk/rdj3/Gau-17426.chk
 Charge =  0 Multiplicity = 1

                         Standard orientation:
 ---------------------------------------------------------------------
 Center     Atomic     Atomic              Coordinates (Angstroms)
 Number     Number      Type              X           Y           Z
 ---------------------------------------------------------------------
    1          1             0        2.124854    0.729004    0.000000
    2          6             0        1.127133    0.316543    0.000000
    3          1             0        1.281040   -1.899220    0.000000
    4          6             0        0.676951   -1.005062    0.000000
    5          1             0       -1.477415   -1.712151    0.000000
    6          6             0       -0.748685   -0.914691    0.000000
    7          7             0       -1.171336    0.374076    0.000000
    8          1             0       -0.061524    2.117272    0.000000
    9          7             0        0.000000    1.109403    0.000000
 ---------------------------------------------------------------------

 SCF Done:  E(RB+HF-LYP) =  -226.159848559     A.U. after    1 cycles

  The electronic state is 1-A'.
 Alpha  occ. eigenvalues --  -14.40462 -14.35799 -10.23780 -10.21371 -10.19490
 Alpha  occ. eigenvalues --   -1.04671  -0.82670  -0.78387  -0.61982  -0.59792
 Alpha  occ. eigenvalues --   -0.54963  -0.45396  -0.43495  -0.43428  -0.40940
 Alpha  occ. eigenvalues --   -0.28577  -0.26769  -0.25396
 Alpha virt. eigenvalues --    0.00037   0.05369   0.08040   0.13459   0.15084
 Alpha virt. eigenvalues --    0.16468   0.18306   0.20651   0.23551   0.31003
 Alpha virt. eigenvalues --    0.31240   0.34494   0.35599   0.39377   0.40554

  Exact polarizability:  47.102   1.861  48.109   0.010  -0.012  18.439
 Approx polarizability:  77.969   1.122  79.393   0.000   0.000  22.995

                     1                      2                      3
                    A"                     A"                     A"
 Frequencies --   609.1412               644.0384               679.4840
 Red. masses --     2.7892                 2.0305                 1.8148
 Frc consts  --     0.6098                 0.4962                 0.4937
 IR Inten    --    58.1166                 7.3879                59.4826
 Raman Activ --     0.0000                 0.0000                 0.0000

                     4                      5                      6
                    A"                     A"                     A'
 Frequencies --   782.8838               870.4931               922.1060
 Red. masses --     1.2099                 1.2634                 5.3176
 Frc consts  --     0.4369                 0.5640                 2.6640
 IR Inten    --   137.6122                12.4888                11.9017
 Raman Activ --     0.0000                 0.0000                 0.0000

                     7                      8                      9
                    A"                     A'                     A'
 Frequencies --   924.8685               933.1796              1024.1203
 Red. masses --     1.3998                 4.9818                 2.1295
 Frc consts  --     0.7054                 2.5560                 1.3159
 IR Inten    --     0.5685                 4.2919                39.0790
 Raman Activ --     0.0000                 0.0000                 0.0000

                    10                     11                     12
                    A'                     A'                     A'
 Frequencies --  1062.6344              1140.6154              1163.9567
 Red. masses --     1.4409                 2.3457                 1.9019
 Frc consts  --     0.9586                 1.7980                 1.5181
 IR Inten    --    10.6400                20.0236                 1.3067
 Raman Activ --     0.0000                 0.0000                 0.0000

                    13                     14                     15
                    A'                     A'                     A'
 Frequencies --  1272.6520              1373.6288              1414.6454
 Red. masses --     2.0353                 2.1673                 3.0660
 Frc consts  --     1.9422                 2.4094                 3.6151
 IR Inten    --     2.0731                 3.7430                 9.4685
 Raman Activ --     0.0000                 0.0000                 0.0000

                    16                     17                     18
                    A'                     A'                     A'
 Frequencies --  1451.3781              1550.7013              3288.8825
 Red. masses --     2.4290                 2.7331                 1.0917
 Frc consts  --     3.0146                 3.8723                 6.9574
 IR Inten    --    13.2203                10.4312                 1.3989
 Raman Activ --     0.0000                 0.0000                 0.0000

                    19                     20                     21
                    A'                     A'                     A'
 Frequencies --  3297.9387              3320.7303              3704.8316
 Red. masses --     1.0979                 1.1102                 1.0831
 Frc consts  --     7.0357                 7.2131                 8.7588
 IR Inten    --     3.3628                 0.9573                76.5686
 Raman Activ --     0.0000                 0.0000                 0.0000

 - Thermochemistry -
 -------------------
 Temperature   298.150 Kelvin.  Pressure   1.00000 Atm.
 Atom  1 has atomic number  1 and mass   1.00783

 Molecular mass:    68.03745 amu.
 Principal axes and moments of inertia in atomic units:
                           1         2         3
     EIGENVALUES --   193.27704 196.80236 390.07940
           X            0.96402   0.26584   0.00000
           Y           -0.26584   0.96402   0.00000
           Z            0.00000   0.00000   1.00000
 THIS MOLECULE IS AN ASYMMETRIC TOP.
 ROTATIONAL SYMMETRY NUMBER  1.
 ROTATIONAL TEMPERATURES (KELVIN)      0.44813     0.44010     0.22204
 ROTATIONAL CONSTANTS (GHZ)            9.33759     9.17032     4.62660
 Zero-point vibrational energy     188010.6 (Joules/Mol)
                                   44.93561 (Kcal/Mol)
 WARNING-- EXPLICIT CONSIDERATION OF   1 DEGREES OF FREEDOM AS
           VIBRATIONS MAY CAUSE SIGNIFICANT ERROR
 VIBRATIONAL TEMPERATURES:    876.41   926.62   977.62  1126.39  1252.44
          (KELVIN)           1326.70  1330.67  1342.63  1473.47  1528.89
                             1641.08  1674.66  1831.05  1976.33  2035.35
                             2088.20  2231.10  4731.94  4744.97  4777.76
                             5330.40

 Zero-point correction=                           0.071609 (Hartree/Particle)
 Thermal correction to Energy=                    0.075287
 Thermal correction to Enthalpy=                  0.076231
 Thermal correction to Gibbs Free Energy=         0.045332
 Sum of electronic and zero-point Energies=           -226.088239
 Sum of electronic and thermal Energies=              -226.084562
 Sum of electronic and thermal Enthalpies=            -226.083618
 Sum of electronic and thermal Free Energies=         -226.114516

                     E (Thermal)             CV                S
                      KCAL/MOL        CAL/MOL-KELVIN    CAL/MOL-KELVIN
 TOTAL                   47.243             13.070             65.031
 ELECTRONIC               0.000              0.000              0.000
 TRANSLATIONAL            0.889              2.981             38.570
 ROTATIONAL               0.889              2.981             24.210
 VIBRATIONAL             45.466              7.108              2.250
 VIBRATION  1             0.968              1.012              0.434
                       Q            LOG10(Q)             LN(Q)
 TOTAL BOT       0.140818D-20        -20.851342        -48.011990
 TOTAL V=0       0.122038D+13         12.086494         27.830180
 VIB (BOT)       0.146401D-32        -32.834456        -75.604129
 VIB (BOT)  1    0.242826D+00         -0.614705         -1.415410
 VIB (V=0)       0.126876D+01          0.103380          0.238041
 VIB (V=0)  1    0.105585D+01          0.023600          0.054342
 ELECTRONIC      0.100000D+01          0.000000          0.000000
 TRANSLATIONAL   0.220588D+08          7.343582         16.909224
 ROTATIONAL      0.436045D+05          4.639531         10.682915
 ***** Axes restored to original set *****
 -------------------------------------------------------------------
 Center     Atomic                   Forces (Hartrees/Bohr)
 Number     Number              X              Y              Z
 -------------------------------------------------------------------
    1          1           0.000014740    0.000000000   -0.000056241
    2          6          -0.000146076    0.000000000    0.000498126
    3          1          -0.000012794    0.000000000   -0.000032566
    4          6           0.000251120    0.000000000   -0.000129438
    5          1           0.000028951    0.000000000   -0.000012551
    6          6          -0.000072592    0.000000000    0.000026514
    7          7          -0.000182095    0.000000000   -0.000055281
    8          1          -0.000020140    0.000000000    0.000015970
    9          7           0.000138884    0.000000000   -0.000254532
 -------------------------------------------------------------------
 Cartesian Forces:  Max     0.000498126 RMS     0.000133584

 GradGradGradGradGradGradGradGradGradGradGradGradGradGradGradGradGradGrad
 Berny optimization.
 Internal  Forces:  Max     0.000281964 RMS     0.000068850
 Search for a local minimum.
 Step number   1 out of a maximum of  48
 All quantities printed in internal units (Hartrees-Bohrs-Radians)
 Second derivative matrix not updated -- analytic derivatives used.
     Eigenvalues ---    0.00961   0.01303   0.01752   0.02842   0.05923
     Eigenvalues ---    0.06319   0.09494   0.10505   0.10904   0.11892
     Eigenvalues ---    0.22280   0.26147   0.32638   0.36776   0.38097
     Eigenvalues ---    0.38331   0.38592   0.42291   0.47995   0.49116
     Eigenvalues ---    0.544221000.000001000.000001000.000001000.00000
     Eigenvalues --- 1000.000001000.000001000.000001000.000001000.00000
     Eigenvalues --- 1000.000001000.000001000.000001000.000001000.00000
     Eigenvalues --- 1000.000001000.000001000.00000
 Angle between quadratic step and forces=  30.23 degrees.
 Linear search not attempted -- first point.
 Iteration  1 RMS(Cart)=  0.00019644 RMS(Int)=  0.00000006
 Iteration  2 RMS(Cart)=  0.00000006 RMS(Int)=  0.00000001
 Variable       Old X    -DE/DX   Delta X   Delta X   Delta X     New X
                                 (Linear)    (Quad)   (Total)
    R1        2.04018   0.00001   0.00000   0.00004   0.00004   2.04022
    R2        2.63839   0.00020   0.00000   0.00059   0.00059   2.63897
    R3        2.60416  -0.00028   0.00000  -0.00084  -0.00084   2.60332
    R4        2.03919   0.00003   0.00000   0.00006   0.00006   2.03925
    R5        2.69947  -0.00005   0.00000  -0.00010  -0.00010   2.69937
    R6        2.04142   0.00003   0.00000   0.00007   0.00007   2.04149
    R7        2.56304   0.00002   0.00000   0.00009   0.00009   2.56313
    R8        2.61352  -0.00015   0.00000  -0.00040  -0.00040   2.61313
    R9        1.90814   0.00003   0.00000   0.00005   0.00005   1.90819
    A1        2.29111  -0.00008   0.00000  -0.00075  -0.00075   2.29035
    A2        2.13656   0.00002   0.00000   0.00057   0.00057   2.13713
    A3        1.85552   0.00006   0.00000   0.00019   0.00019   1.85570
    A4        2.21913   0.00003   0.00000  -0.00018  -0.00018   2.21895
    A5        1.83580  -0.00011   0.00000  -0.00038  -0.00038   1.83542
    A6        2.22826   0.00008   0.00000   0.00056   0.00056   2.22882
    A7        2.24789  -0.00001   0.00000  -0.00011  -0.00011   2.24778
    A8        1.95100  -0.00002   0.00000   0.00001   0.00001   1.95101
    A9        2.08430   0.00003   0.00000   0.00010   0.00010   2.08440
   A10        1.81449   0.00005   0.00000   0.00005   0.00005   1.81453
   A11        1.96798   0.00003   0.00000   0.00014   0.00014   1.96812
   A12        2.24479  -0.00001   0.00000  -0.00003  -0.00003   2.24476
   A13        2.07042  -0.00002   0.00000  -0.00011  -0.00011   2.07031
    D1        0.00000   0.00000   0.00000   0.00000   0.00000   0.00000
    D2        3.14159   0.00000   0.00000   0.00000   0.00000   3.14159
    D3        3.14159   0.00000   0.00000   0.00000   0.00000   3.14159
    D4        0.00000   0.00000   0.00000   0.00000   0.00000   0.00000
    D5        3.14159   0.00000   0.00000   0.00000   0.00000   3.14159
    D6        0.00000   0.00000   0.00000   0.00000   0.00000   0.00000
    D7        0.00000   0.00000   0.00000   0.00000   0.00000   0.00000
    D8        3.14159   0.00000   0.00000   0.00000   0.00000   3.14159
    D9        3.14159   0.00000   0.00000   0.00000   0.00000   3.14159
   D10        0.00000   0.00000   0.00000   0.00000   0.00000   0.00000
   D11        0.00000   0.00000   0.00000   0.00000   0.00000   0.00000
   D12        3.14159   0.00000   0.00000   0.00000   0.00000   3.14159
   D13        0.00000   0.00000   0.00000   0.00000   0.00000   0.00000
   D14        3.14159   0.00000   0.00000   0.00000   0.00000   3.14159
   D15        0.00000   0.00000   0.00000   0.00000   0.00000   0.00000
   D16        3.14159   0.00000   0.00000   0.00000   0.00000   3.14159
         Item               Value     Threshold  Converged?
 Maximum Force            0.000282     0.000450     YES
 RMS     Force            0.000069     0.000300     YES
 Maximum Displacement     0.000726     0.001800     YES
 RMS     Displacement     0.000196     0.001200     YES
 Predicted change in Energy=-3.025021D-07
 Optimization completed.
    -- Stationary point found.
                         ----------------------------
                         !   Optimized Parameters   !
                         ! (Angstroms and Degrees)  !
 ------------------------                            -------------------------
 ! Name  Definition              Value          Derivative Info.             !
 -----------------------------------------------------------------------------
 ! R1    R(1,2)                  1.0796         -DE/DX =    0.               !
 ! R2    R(2,4)                  1.3962         -DE/DX =    0.0002           !
 ! R3    R(2,9)                  1.3781         -DE/DX =   -0.0003           !
 ! R4    R(3,4)                  1.0791         -DE/DX =    0.               !
 ! R5    R(4,6)                  1.4285         -DE/DX =    0.               !
 ! R6    R(5,6)                  1.0803         -DE/DX =    0.               !
 ! R7    R(6,7)                  1.3563         -DE/DX =    0.               !
 ! R8    R(7,9)                  1.383          -DE/DX =   -0.0001           !
 ! R9    R(8,9)                  1.0097         -DE/DX =    0.               !
 ! A1    A(1,2,4)              131.2709         -DE/DX =   -0.0001           !
 ! A2    A(1,2,9)              122.4159         -DE/DX =    0.               !
 ! A3    A(4,2,9)              106.3132         -DE/DX =    0.0001           !
 ! A4    A(2,4,3)              127.1467         -DE/DX =    0.               !
 ! A5    A(2,4,6)              105.1834         -DE/DX =   -0.0001           !
 ! A6    A(3,4,6)              127.6699         -DE/DX =    0.0001           !
 ! A7    A(4,6,5)              128.7944         -DE/DX =    0.               !
 ! A8    A(4,6,7)              111.784          -DE/DX =    0.               !
 ! A9    A(5,6,7)              119.4216         -DE/DX =    0.               !
 ! A10   A(6,7,9)              103.9624         -DE/DX =    0.               !
 ! A11   A(2,9,7)              112.757          -DE/DX =    0.               !
 ! A12   A(2,9,8)              128.6169         -DE/DX =    0.               !
 ! A13   A(7,9,8)              118.6261         -DE/DX =    0.               !
 ! D1    D(1,2,4,3)              0.             -DE/DX =    0.               !
 ! D2    D(1,2,4,6)            180.             -DE/DX =    0.               !
 ! D3    D(9,2,4,3)            180.             -DE/DX =    0.               !
 ! D4    D(9,2,4,6)              0.             -DE/DX =    0.               !
 ! D5    D(1,2,9,7)            180.             -DE/DX =    0.               !
 ! D6    D(1,2,9,8)              0.             -DE/DX =    0.               !
 ! D7    D(4,2,9,7)              0.             -DE/DX =    0.               !
 ! D8    D(4,2,9,8)            180.             -DE/DX =    0.               !
 ! D9    D(2,4,6,5)            180.             -DE/DX =    0.               !
 ! D10   D(2,4,6,7)              0.             -DE/DX =    0.               !
 ! D11   D(3,4,6,5)              0.             -DE/DX =    0.               !
 ! D12   D(3,4,6,7)            180.             -DE/DX =    0.               !
 ! D13   D(4,6,7,9)              0.             -DE/DX =    0.               !
 ! D14   D(5,6,7,9)            180.             -DE/DX =    0.               !
 ! D15   D(6,7,9,2)              0.             -DE/DX =    0.               !
 ! D16   D(6,7,9,8)            180.             -DE/DX =    0.               !
 -----------------------------------------------------------------------------
 GradGradGradGradGradGradGradGradGradGradGradGradGradGradGradGradGradGrad

 1\1\GINC-INDIUM\Freq\RB3LYP\SDD\C3H4N2\RDJ3\02-Jan-2001\0\\#N GEOM=ALL
 CHECK GUESS=TCHECK RB3LYP/SDD FREQ\\1H pyrazole C3H4N2 casno=288131\\0
 ,1\H,-1.8988234681,0.,-1.2003840889\C,-0.9525292253,0.,-0.680673138\H,
 0.6788135178,0.,-2.1879924081\C,0.3598347015,0.,-1.1571221012\H,2.2600
 485059,0.,0.0799950186\C,1.1819756294,0.,0.0110773574\N,0.4417060156,0
 .,1.1475435732\H,-1.6123890192,0.,1.3736187763\N,-0.8650397542,0.,0.69
 4609283\\Version=IBM-RS6000-G98RevA.6\State=1-A'\HF=-226.1598486\RMSD=
 5.242e-09\RMSF=1.336e-04\Dipole=-0.828377,0.,-0.5328127\DipoleDeriv=-0
 .002803,0.0001015,-0.0571227,-0.0000281,0.2378517,0.0000568,-0.0492257
 ,0.0000778,0.0849273,0.1001309,-0.0002028,-0.1513866,0.0001604,-0.1529
 906,-0.0003128,-0.3329167,0.0004261,0.2248982,0.1150333,-0.0001621,0.0
 383347,-0.0000132,0.217464,0.0000846,0.0420002,0.0006411,-0.0376907,-0
 .2599662,0.0003332,-0.0027494,0.000062,-0.2523356,-0.0001048,-0.036609
 2,-0.000871,-0.0407589,-0.0431979,-0.0001696,-0.0039543,-0.0000165,0.1
 837971,0.0000132,-0.0221797,0.0000123,0.105691,0.1880864,0.000272,0.08
 08833,-0.0000841,-0.1184198,0.0005242,0.2005078,-0.0000291,0.1453955,0
 .0828112,-0.0001772,-0.1687249,0.0000666,-0.2219807,-0.0008599,-0.0621
 747,0.000025,-0.4750074,0.2160142,0.0001886,-0.0249838,-0.0000282,0.36
 79434,-0.0000207,-0.0297696,-0.0001239,0.2199833,-0.3961085,-0.0001835
 ,0.2897035,-0.0001188,-0.2613296,0.0006196,0.2903676,-0.0001582,-0.227
 4379\Polar=49.5317729,0.0028757,18.4386905,-0.0899059,-0.014861,45.679
 252\PG=CS [SG(C3H4N2)]\NImag=0\\0.30398177,0.00000032,0.02168742,0.140
 21103,0.00000038,0.12963219,-0.30270438,-0.00000113,-0.12524736,0.8571
 2239,-0.00000349,-0.02905173,-0.00000189,0.00000219,0.12884065,-0.1348
 9526,0.00000276,-0.12661570,0.10636523,-0.00000269,0.62727453,-0.00006
 271,-0.00000130,-0.00093854,0.00208186,0.00000121,0.02651559,0.0779521
 2,0.00000106,-0.00284533,0.00000067,-0.00000098,-0.00022640,0.00000131
 ,-0.00000091,0.02362962,0.00075693,0.00000441,-0.00008954,-0.00693793,
 -0.00000205,0.00076712,-0.09510853,0.00000289,0.35308719,-0.00454677,0
 .00000273,0.01197842,-0.34045896,0.00000239,0.07550118,-0.08383083,0.0
 0000088,0.09099468,0.61352056,-0.00000124,0.00238649,-0.00000079,0.000
 00118,-0.06926071,-0.00000130,0.00000113,-0.03039135,-0.00000252,-0.00
 000035,0.12769855,-0.01615539,-0.00000504,0.01189370,0.09536551,0.0000
 0733,-0.13790815,0.08845655,-0.00000390,-0.34474705,-0.12268095,0.0000
 0411,0.83345327,-0.00039660,-0.00000319,0.00010182,0.00041500,-0.00000
 357,-0.00038817,-0.00029574,-0.00000076,-0.00081353,-0.00242697,0.0000
 0125,0.00658780,0.37998390,0.00000070,0.00067153,0.00000057,-0.0000013
 3,0.00449834,0.00000136,-0.00000070,-0.00182894,0.00000251,0.00000130,
 0.00138251,-0.00000335,-0.00000140,0.02464543,-0.00082871,-0.00000003,
 0.00097881,-0.00285592,-0.00000003,-0.00584865,0.00099075,0.00000005,0
 .00004419,-0.02224511,0.00000009,0.00661106,0.01962729,-0.00000002,0.0
 5517033,-0.00334056,0.00000305,0.00479064,-0.05938215,0.00000379,-0.00
 595629,0.01186223,0.00000017,0.01431125,-0.17642997,-0.00000007,-0.100
 41445,-0.36636748,0.00000166,-0.03132290,0.88272180,0.00000233,0.00541
 159,0.00000068,0.00000020,0.01238279,-0.00000887,-0.00000126,-0.001477
 59,-0.00000350,-0.00000867,-0.06919500,-0.00000362,0.00000801,-0.03167
 048,-0.00000040,-0.00001743,0.14036149,0.00074557,0.00000035,-0.002209
 28,-0.06290211,-0.00001167,0.03072764,-0.01751612,0.00000188,-0.007476
 80,-0.07323546,-0.00000550,-0.22651848,-0.02203415,0.00000020,-0.05772
 536,-0.00097676,0.00003517,0.57364293,0.00114582,-0.00000019,0.0012091
 5,-0.05450174,0.00000546,-0.04430090,-0.00205322,-0.00000076,-0.001015
 14,0.02146028,0.00000101,0.03092322,-0.01189280,0.00000003,0.02879834,
 -0.16950330,-0.00000344,0.14218539,0.45713271,-0.00000400,0.00540284,-
 0.00000135,0.,0.01764282,0.00001387,0.00000326,0.00610803,0.00000129,0
 .00001136,0.02052617,0.00000898,-0.00000934,-0.00658385,0.00000056,0.0
 0002670,-0.06996896,-0.00005568,0.00000392,0.09886582,0.00301759,-0.00
 000108,-0.00421747,-0.02081249,0.00000969,-0.06665610,-0.00554921,-0.0
 0000192,-0.00268801,-0.02980042,0.00000529,-0.07833178,-0.00495625,0.0
 0000013,0.00465270,0.09251571,-0.00003003,-0.27340826,-0.05661173,0.00
 004891,0.51368868,-0.00029215,0.00000074,0.00040751,0.01020027,-0.0000
 0221,-0.01060776,0.00070057,0.00000045,0.00006470,0.00132117,-0.000000
 26,-0.00345391,-0.00054115,0.00000030,0.00154612,-0.00670190,-0.000004
 56,-0.00546767,-0.01826946,0.00000811,0.02582497,0.29681181,-0.0000004
 8,-0.00138112,-0.00000019,-0.00000013,-0.00549553,0.00000282,0.0000000
 8,0.00191610,0.00000101,0.00000161,0.00337545,-0.00000089,-0.00000077,
 0.00180748,0.00000006,0.00000315,0.00442599,-0.00000483,-0.00000083,-0
 .00963975,0.00000413,0.00000172,0.01498374,-0.00083493,-0.00000061,-0.
 00000233,0.02596410,0.00000206,-0.00592131,0.00101501,-0.00000037,0.00
 018026,-0.00263475,0.00000047,-0.00614505,-0.00027002,-0.00000021,0.00
 094132,-0.00721792,0.00000239,0.00094649,-0.01435650,-0.00000449,0.013
 81042,-0.20937389,-0.00000115,0.25683227,0.00621560,-0.00000102,-0.032
 51268,-0.11277228,-0.00000576,-0.01223363,-0.00635427,0.00000085,-0.00
 225243,-0.02860851,-0.00000264,0.02137163,0.00152183,-0.00000056,0.006
 29015,-0.11285868,0.00002482,0.03920130,-0.22351827,-0.00004003,-0.003
 62816,-0.28322916,-0.00000435,0.20770889,0.75960375,0.00000480,-0.0022
 8168,0.00000194,0.,-0.05933024,-0.00000927,-0.00000151,0.00511587,-0.0
 0000404,-0.00001124,0.01347790,-0.00000362,0.00000976,0.00707798,-0.00
 000029,-0.00002100,0.00973017,0.00004008,-0.00000520,-0.06235313,-0.00
 003510,-0.00000429,-0.00999236,0.00000190,0.00002869,0.09855549,0.0079
 8317,-0.00000115,-0.00937037,-0.00893902,-0.00000076,-0.31581939,0.002
 13451,-0.00000059,0.00092263,0.07212241,0.00000015,-0.05830752,0.00214
 520,-0.00000118,-0.00482439,0.03427071,0.00000818,-0.03797887,-0.08683
 183,-0.00001210,-0.10685017,0.20105992,-0.00000096,-0.26064207,-0.2239
 4506,0.00000840,0.79287016\\-0.00001474,0.,0.00005624,0.00014608,0.,-0
 .00049813,0.00001279,0.,0.00003257,-0.00025112,0.,0.00012944,-0.000028
 95,0.,0.00001255,0.00007259,0.,-0.00002651,0.00018209,0.,0.00005528,0.
 00002014,0.,-0.00001597,-0.00013888,0.,0.00025453\\\@

 OPTIMIST - A PESSIMIST WHO LACKS EXPERIENCE
 Job cpu time:  0 days  0 hours  3 minutes 30.3 seconds.
 File lengths (MBytes):  RWF=   17 Int=    0 D2E=    0 Chk=    8 Scr=    1
 Normal termination of Gaussian 98.
