 Gaussian 98, Revision A.4,
 Gaussian 98:  x86-Linux-G98RevA.4 11-Sep-1998

 ----------------------
 #B3LYP/6-31G* OPT FREQ
 ----------------------

 -------------------------------
 1H pyrazole C3H4N2 casno=288131
 -------------------------------
 Symbolic Z-matrix:
 Charge =  0 Multiplicity = 1

 SCF Done:  E(RB+HF-LYP) =  -226.196134792     A.U. after   15 cycles
 SCF Done:  E(RB+HF-LYP) =  -226.198527166     A.U. after   12 cycles
 SCF Done:  E(RB+HF-LYP) =  -226.198592270     A.U. after   10 cycles
 SCF Done:  E(RB+HF-LYP) =  -226.198600842     A.U. after    9 cycles
 Optimization completed.
    -- Stationary point found.
 Normal termination of Gaussian 98.

 --------------------------------------------------
 #N Geom=AllCheck Guess=TCheck RB3LYP/6-31G(d) Freq
 --------------------------------------------------

 1H pyrazole C3H4N2 casno=288131
 -------------------------------
 Redundant internal coordinates taken from checkpointfile:
 /wrk/rdj3/Gau-1130.chk
 Charge =  0 Multiplicity = 1

                         Standard orientation:
 ---------------------------------------------------------------------
 Center     Atomic     Atomic              Coordinates (Angstroms)
 Number     Number      Type              X           Y           Z
 ---------------------------------------------------------------------
    1          1             0        2.106486    0.732325    0.000000
    2          6             0        1.112999    0.307138    0.000000
    3          1             0        1.266758   -1.896908    0.000000
    4          6             0        0.665321   -0.999636    0.000000
    5          1             0       -1.479466   -1.685432    0.000000
    6          6             0       -0.743936   -0.891559    0.000000
    7          7             0       -1.149913    0.378352    0.000000
    8          1             0       -0.050688    2.094874    0.000000
    9          7             0        0.000000    1.087289    0.000000
 ---------------------------------------------------------------------

 SCF Done:  E(RB+HF-LYP) =  -226.198600842     A.U. after    1 cycles

  The electronic state is 1-A'.
 Alpha  occ. eigenvalues --  -14.40671 -14.34324 -10.22211 -10.19853 -10.17864
 Alpha  occ. eigenvalues --   -1.03819  -0.81194  -0.77316  -0.60851  -0.58959
 Alpha  occ. eigenvalues --   -0.54124  -0.44106  -0.43046  -0.42541  -0.39519
 Alpha  occ. eigenvalues --   -0.28468  -0.25380  -0.24327
 Alpha virt. eigenvalues --    0.02402   0.07743   0.07880   0.13365   0.15697
 Alpha virt. eigenvalues --    0.16893   0.22180   0.23536   0.29192   0.39935
 Alpha virt. eigenvalues --    0.43366   0.53659   0.54835   0.55945   0.59624

  Exact polarizability:  46.240   2.030  48.000   0.000  -0.003  17.047
 Approx polarizability:  77.317   1.021  79.468   0.000   0.000  25.243

                     1                      2                      3
                    A"                     A"                     A"
 Frequencies --   498.1156               637.1585               693.0898
 Red. masses --     1.6796                 2.6774                 2.9678
 Frc consts  --     0.2455                 0.6404                 0.8400
 IR Inten    --    61.0848                 0.0377                22.2637
 Raman Activ --     0.0000                 0.0000                 0.0000

                     4                      5                      6
                    A"                     A"                     A"
 Frequencies --   752.8356               833.8420               889.0175
 Red. masses --     1.2137                 1.2026                 1.3010
 Frc consts  --     0.4053                 0.4926                 0.6058
 IR Inten    --    71.0884                10.1845                 4.3384
 Raman Activ --     0.0000                 0.0000                 0.0000

                     7                      8                      9
                    A'                     A'                     A'
 Frequencies --   922.0269               940.6375              1054.8444
 Red. masses --     5.6549                 4.1188                 1.7323
 Frc consts  --     2.8325                 2.1472                 1.1357
 IR Inten    --     9.1625                 6.1301                35.5853
 Raman Activ --     0.0000                 0.0000                 0.0000

                    10                     11                     12
                    A'                     A'                     A'
 Frequencies --  1066.6491              1155.7425              1186.0415
 Red. masses --     1.4235                 1.8412                 2.8199
 Frc consts  --     0.9542                 1.4490                 2.3371
 IR Inten    --     7.2670                17.7407                 0.6369
 Raman Activ --     0.0000                 0.0000                 0.0000

                    13                     14                     15
                    A'                     A'                     A'
 Frequencies --  1291.3483              1396.9271              1442.3408
 Red. masses --     1.8129                 2.4536                 3.6848
 Frc consts  --     1.7812                 2.8210                 4.5165
 IR Inten    --     2.4925                 4.7755                13.0287
 Raman Activ --     0.0000                 0.0000                 0.0000

                    16                     17                     18
                    A'                     A'                     A'
 Frequencies --  1499.5805              1585.0333              3259.9705
 Red. masses --     2.6193                 2.9274                 1.0923
 Frc consts  --     3.4703                 4.3332                 6.8396
 IR Inten    --     6.8752                 6.5704                 6.5013
 Raman Activ --     0.0000                 0.0000                 0.0000

                    19                     20                     21
                    A'                     A'                     A'
 Frequencies --  3275.2778              3291.7236              3665.7232
 Red. masses --     1.0933                 1.1063                 1.0816
 Frc consts  --     6.9104                 7.0625                 8.5634
 IR Inten    --     3.6734                 1.3534                64.3855
 Raman Activ --     0.0000                 0.0000                 0.0000

 - Thermochemistry -
 -------------------
 Temperature   298.150 Kelvin.  Pressure   1.00000 Atm.
 Atom  1 has atomic number  1 and mass   1.00783

 Molecular mass:    68.03745 amu.
 Principal axes and moments of inertia in atomic units:
                           1         2         3
     EIGENVALUES --   187.40718 192.01139 379.41857
           X            0.92519   0.37950   0.00000
           Y           -0.37950   0.92519   0.00000
           Z            0.00000   0.00000   1.00000
 THIS MOLECULE IS AN ASYMMETRIC TOP.
 ROTATIONAL SYMMETRY NUMBER  1.
 ROTATIONAL TEMPERATURES (KELVIN)      0.46217     0.45108     0.22828
 ROTATIONAL CONSTANTS (GHZ)            9.63005     9.39914     4.75660
 Zero-point vibrational energy     187442.4 (Joules/Mol)
                                   44.79982 (Kcal/Mol)
 WARNING-- EXPLICIT CONSIDERATION OF   1 DEGREES OF FREEDOM AS
           VIBRATIONS MAY CAUSE SIGNIFICANT ERROR
 VIBRATIONAL TEMPERATURES:    716.67   916.72   997.20  1083.16  1199.71
          (KELVIN)           1279.09  1326.58  1353.36  1517.68  1534.66
                             1662.85  1706.44  1857.95  2009.85  2075.19
                             2157.55  2280.50  4690.34  4712.37  4736.03
                             5274.13

 Zero-point correction=                           0.071393 (Hartree/Particle)
 Thermal correction to Energy=                    0.075151
 Thermal correction to Enthalpy=                  0.076096
 Thermal correction to Gibbs Free Energy=         0.045112
 Sum of electronic and zero-point Energies=           -226.127208
 Sum of electronic and thermal Energies=              -226.123449
 Sum of electronic and thermal Enthalpies=            -226.122505
 Sum of electronic and thermal Free Energies=         -226.153488

                     E (Thermal)             CV                S
                      KCAL/MOL        CAL/MOL-KELVIN    CAL/MOL-KELVIN
 TOTAL                   47.158             13.335             65.210
 ELECTRONIC               0.000              0.000              0.000
 TRANSLATIONAL            0.889              2.981             38.570
 ROTATIONAL               0.889              2.981             24.127
 VIBRATIONAL             45.381              7.374              2.512
 VIBRATION  1             0.854              1.254              0.663
                       Q            LOG10(Q)             LN(Q)
 TOTAL BOT       0.177763D-20        -20.750158        -47.779004
 TOTAL V=0       0.122503D+13         12.088147         27.833986
 VIB (BOT)       0.192661D-32        -32.715205        -75.329544
 VIB (BOT)  1    0.330503D+00         -0.480824         -1.107138
 VIB (V=0)       0.132770D+01          0.123099          0.283446
 VIB (V=0)  1    0.109936D+01          0.041140          0.094728
 ELECTRONIC      0.100000D+01          0.000000          0.000000
 TRANSLATIONAL   0.220588D+08          7.343582         16.909224
 ROTATIONAL      0.418278D+05          4.621465         10.641317
 ***** Axes restored to original set *****
 -------------------------------------------------------------------
 Center     Atomic                   Forces (Hartrees/Bohr)
 Number     Number              X              Y              Z
 -------------------------------------------------------------------
    1          1          -0.000037936    0.000000000   -0.000122674
    2          6          -0.000104107    0.000000000    0.000434043
    3          1          -0.000059717    0.000000000   -0.000047966
    4          6          -0.000107033    0.000000000   -0.000427765
    5          1          -0.000017755    0.000000000    0.000102903
    6          6          -0.000340345    0.000000000    0.000497043
    7          7          -0.000076221    0.000000000    0.000053378
    8          1           0.000132914    0.000000000   -0.000042788
    9          7           0.000610199    0.000000000   -0.000446174
 -------------------------------------------------------------------
 Cartesian Forces:  Max     0.000610199 RMS     0.000226845

 GradGradGradGradGradGradGradGradGradGradGradGradGradGradGradGradGradGrad
 Berny optimization.
 Internal  Forces:  Max     0.000400428 RMS     0.000162061
 Search for a local minimum.
 Step number   1 out of a maximum of  48
 All quantities printed in internal units (Hartrees-Bohrs-Radians)
 Second derivative matrix not updated -- analytic derivatives used.
     Eigenvalues ---    0.00651   0.01127   0.01591   0.02779   0.05842
     Eigenvalues ---    0.06187   0.09521   0.10534   0.11239   0.12077
     Eigenvalues ---    0.22228   0.26612   0.34552   0.37038   0.37759
     Eigenvalues ---    0.38009   0.40261   0.42916   0.47731   0.49423
     Eigenvalues ---    0.568851000.000001000.000001000.000001000.00000
     Eigenvalues --- 1000.000001000.000001000.000001000.000001000.00000
     Eigenvalues --- 1000.000001000.000001000.000001000.000001000.00000
     Eigenvalues --- 1000.000001000.000001000.00000
 Angle between quadratic step and forces=  26.41 degrees.
 Linear search not attempted -- first point.
 Iteration  1 RMS(Cart)=  0.00061878 RMS(Int)=  0.00000016
 Iteration  2 RMS(Cart)=  0.00000019 RMS(Int)=  0.00000004
 Variable       Old X    -DE/DX   Delta X   Delta X   Delta X     New X
                                 (Linear)    (Quad)   (Total)
    R1        2.04213   0.00009   0.00000   0.00023   0.00023   2.04236
    R2        2.61034  -0.00012   0.00000   0.00014   0.00014   2.61047
    R3        2.56850  -0.00025   0.00000  -0.00077  -0.00077   2.56773
    R4        2.04127   0.00003   0.00000   0.00003   0.00003   2.04130
    R5        2.67093   0.00038   0.00000   0.00100   0.00100   2.67193
    R6        2.04513  -0.00001   0.00000   0.00001   0.00001   2.04515
    R7        2.51943  -0.00034   0.00000  -0.00058  -0.00058   2.51886
    R8        2.55280  -0.00037   0.00000  -0.00082  -0.00082   2.55198
    R9        1.90647  -0.00013   0.00000  -0.00022  -0.00022   1.90625
    A1        2.30523  -0.00004   0.00000  -0.00074  -0.00074   2.30449
    A2        2.12585   0.00014   0.00000   0.00083   0.00083   2.12668
    A3        1.85210  -0.00010   0.00000  -0.00009  -0.00009   1.85202
    A4        2.22103   0.00004   0.00000  -0.00022  -0.00022   2.22081
    A5        1.82431  -0.00024   0.00000  -0.00075  -0.00075   1.82355
    A6        2.23785   0.00020   0.00000   0.00098   0.00098   2.23882
    A7        2.24152   0.00002   0.00000   0.00041   0.00041   2.24193
    A8        1.95676   0.00017   0.00000   0.00043   0.00043   1.95719
    A9        2.08490  -0.00019   0.00000  -0.00084  -0.00084   2.08407
   A10        1.81385  -0.00024   0.00000  -0.00053  -0.00053   1.81332
   A11        1.97776   0.00040   0.00000   0.00094   0.00094   1.97870
   A12        2.23242  -0.00014   0.00000  -0.00023  -0.00023   2.23219
   A13        2.07301  -0.00026   0.00000  -0.00070  -0.00070   2.07230
    D1        0.00000   0.00000   0.00000   0.00000   0.00000   0.00000
    D2        3.14159   0.00000   0.00000   0.00000   0.00000   3.14159
    D3        3.14159   0.00000   0.00000   0.00000   0.00000   3.14159
    D4        0.00000   0.00000   0.00000   0.00000   0.00000   0.00000
    D5        3.14159   0.00000   0.00000   0.00000   0.00000   3.14159
    D6        0.00000   0.00000   0.00000   0.00000   0.00000   0.00000
    D7        0.00000   0.00000   0.00000   0.00000   0.00000   0.00000
    D8        3.14159   0.00000   0.00000   0.00000   0.00000   3.14159
    D9       -3.14159   0.00000   0.00000   0.00000   0.00000  -3.14159
   D10        0.00000   0.00000   0.00000   0.00000   0.00000   0.00000
   D11        0.00000   0.00000   0.00000   0.00000   0.00000   0.00000
   D12        3.14159   0.00000   0.00000   0.00000   0.00000   3.14159
   D13        0.00000   0.00000   0.00000   0.00000   0.00000   0.00000
   D14        3.14159   0.00000   0.00000   0.00000   0.00000   3.14159
   D15        0.00000   0.00000   0.00000   0.00000   0.00000   0.00000
   D16        3.14159   0.00000   0.00000   0.00000   0.00000   3.14159
         Item               Value     Threshold  Converged?
 Maximum Force            0.000400     0.000450     YES
 RMS     Force            0.000162     0.000300     YES
 Maximum Displacement     0.002173     0.001800     NO
 RMS     Displacement     0.000619     0.001200     YES
 Predicted change in Energy=-1.287919D-06
 GradGradGradGradGradGradGradGradGradGradGradGradGradGradGradGradGradGrad

 1\1\GINC-QCHEM3\Freq\RB3LYP\6-31G(d)\C3H4N2\RDJ3\18-Jan-1999\0\\#N GEO
 M=ALLCHECK GUESS=TCHECK RB3LYP/6-31G(D) FREQ\\1H pyrazole C3H4N2 casno
 =288131\\0,1\H,-1.8948282082,0.,-1.1760995133\C,-0.9391524219,0.,-0.67
 16340651\H,0.6768853665,0.,-2.1782475998\C,0.3581145529,0.,-1.14615808
 46\H,2.2408886475,0.,0.0889893816\C,1.1610464939,0.,0.0170213584\N,0.4
 296768792,0.,1.1317362455\H,-1.5960659127,0.,1.3578068535\N,-0.8449528
 282,0.,0.6842888438\\Version=x86-Linux-G98RevA.4\State=1-A'\HF=-226.19
 86008\RMSD=1.879e-09\RMSF=2.268e-04\Dipole=-0.7955278,0.,-0.4196833\Di
 poleDeriv=-0.0179445,0.0000656,-0.0501349,0.0002457,0.165579,-0.000251
 6,-0.0342315,0.0000618,0.0682347,0.1525654,-0.0001571,-0.1074667,-0.00
 01181,-0.0654306,0.0001507,-0.2934243,-0.0000455,0.2191906,0.0864587,0
 .0000065,0.0303937,0.0000168,0.1510961,0.0000104,0.0349781,-0.0000591,
 -0.041938,-0.2560217,-0.0000556,-0.0042632,-0.0000176,-0.1992362,0.000
 0309,-0.0546851,-0.0000352,0.0009617,-0.0689218,-0.0000284,-0.0103175,
 -0.0000847,0.1255738,0.0000992,-0.0269293,0.0000045,0.0739075,0.244180
 5,0.0001246,0.1229721,0.0000431,-0.0456111,-0.0000687,0.1983211,0.0001
 705,0.1803343,0.0085246,0.0000648,-0.2251671,-0.0001223,-0.235724,0.00
 00437,-0.0804964,0.0000096,-0.5790081,0.1912164,-0.0000146,-0.0333701,
 -0.0000532,0.3190537,0.0000079,-0.0236468,0.0000033,0.2098465,-0.34005
 73,-0.0000058,0.2773537,0.0000903,-0.2153007,-0.0000225,0.2801142,-0.0
 001099,-0.131529\Polar=49.2886907,0.0022988,17.0470691,-0.4390282,-0.0
 018762,44.9512072\PG=CS [SG(C3H4N2)]\NImag=0\\0.30590153,0.00000228,0.
 02002655,0.13540168,0.00000003,0.12350257,-0.30013858,0.00000281,-0.11
 617753,0.85949157,0.00000455,-0.02388026,0.00000320,-0.00000939,0.1138
 9912,-0.12525549,0.00000665,-0.12104365,0.09612318,-0.00000015,0.64579
 720,0.00034108,0.00000124,-0.00079637,0.00183865,0.00000147,0.02649152
 ,0.07736614,0.00000259,-0.00254505,0.00000163,-0.00000391,-0.00258918,
 0.00000150,0.00000093,0.02161086,0.00043773,-0.00000355,-0.00017265,-0
 .00253181,-0.00000649,-0.00006047,-0.09382530,-0.00000369,0.34887538,-
 0.00760903,0.00000614,0.00892322,-0.34550752,-0.00000481,0.07365807,-0
 .08474945,-0.00000084,0.08697749,0.62346956,-0.00000331,0.00023245,-0.
 00000191,0.00000428,-0.06027488,-0.00000262,-0.00000122,-0.02497495,0.
 00000448,0.00000046,0.11230762,-0.01522921,0.00001359,0.01333884,0.101
 46871,-0.00000143,-0.14344240,0.08461101,0.00000242,-0.33490041,-0.120
 31097,-0.00000379,0.83166179,-0.00015496,-0.00001250,0.00032162,-0.000
 91725,0.00000004,-0.00126056,-0.00005375,-0.00000295,-0.00051574,-0.00
 553401,0.00000386,0.00333065,0.37298700,-0.00000006,0.00091493,0.00000
 085,-0.00000293,0.00444202,-0.00000296,-0.00000042,-0.00180024,0.00000
 106,-0.00000323,0.00057332,-0.00000613,0.00000641,0.02444622,-0.001083
 40,0.00000029,0.00115406,-0.00277807,0.,-0.00610887,0.00091344,0.00000
 004,0.00020547,-0.02234686,-0.00000013,0.00705137,0.02073624,0.,0.0569
 1015,-0.00461157,0.00000350,0.00457309,-0.05437551,0.00000363,-0.00010
 526,0.01366340,0.00000269,0.01223085,-0.18043693,-0.00000373,-0.105659
 81,-0.35156061,-0.00000109,-0.03207048,0.88080314,-0.00000209,0.005038
 63,-0.00000204,0.00000518,0.01040846,0.00000155,-0.00000023,-0.0034311
 7,0.00000184,0.00000223,-0.06351717,0.00000172,-0.00000063,-0.03006447
 ,-0.00000014,-0.00000258,0.13723374,0.00115448,-0.00001859,-0.00249777
 ,-0.07065501,0.00001380,0.03665720,-0.01534243,0.00000271,-0.00984062,
 -0.07010451,-0.00000002,-0.23254602,-0.02462447,0.00000848,-0.06187831
 ,-0.00800428,-0.00000660,0.60927146,0.00051589,0.00000219,0.00063841,-
 0.05720301,0.00000617,-0.04938679,-0.00225908,0.00000401,-0.00123036,0
 .02812919,-0.00000387,0.03889503,-0.01395746,-0.00000064,0.02887868,-0
 .18007947,-0.00000225,0.14112383,0.49368386,-0.00000199,0.00658108,-0.
 00000079,0.00000113,0.01661977,-0.00000303,-0.00000094,0.00667890,0.00
 000381,-0.00000209,0.01997099,-0.00000730,0.00000917,-0.00780285,0.000
 00007,-0.00000345,-0.07175074,0.00000214,-0.00000571,0.10408344,0.0019
 9401,0.00000366,-0.00559112,-0.01826917,-0.00000119,-0.06623162,-0.005
 83220,0.00000034,-0.00423410,-0.03336887,-0.00000200,-0.07743005,-0.00
 008967,-0.00000002,0.00644819,0.10485359,-0.00000029,-0.30526703,-0.04
 892756,0.00000149,0.56174090,-0.00024884,-0.00000117,0.00042503,0.0101
 9071,-0.00000255,-0.00399380,0.00075056,-0.00000131,-0.00008396,0.0018
 6320,0.00000096,-0.00309009,-0.00039200,0.00000127,0.00152329,-0.00770
 644,0.00000023,-0.00557801,-0.02127292,0.00000294,0.02453220,0.2931478
 8,0.00000162,-0.00140635,0.00000134,-0.00000307,-0.00871941,0.,0.00000
 025,0.00238238,-0.00000187,0.00000019,0.00296461,0.00000191,-0.0000051
 9,0.00228768,0.00000005,0.00000561,0.00425784,0.00000120,0.00000268,-0
 .01290897,-0.00000002,-0.00000114,0.01165230,-0.00068481,0.00000034,0.
 00009014,0.02556005,0.00000187,-0.00567938,0.00133605,0.00000087,0.000
 21879,-0.00240373,-0.00000035,-0.00716264,-0.00057400,-0.00000086,0.00
 102566,-0.00573458,-0.00000005,0.00064356,-0.01044118,-0.00000231,0.01
 657735,-0.20438443,0.00000054,0.25136698,0.00600449,-0.00000448,-0.033
 30914,-0.11337907,0.00000089,-0.01627088,-0.00689755,-0.00000120,-0.00
 145889,-0.02962500,0.00000258,0.01598467,-0.00041695,0.00000070,0.0062
 2716,-0.11569603,0.00000014,0.05203039,-0.24755701,0.00000093,-0.02489
 234,-0.27633215,-0.00000095,0.19732664,0.78389927,-0.00000357,-0.00496
 198,-0.00000230,0.00000592,-0.04990563,-0.00000093,-0.00000107,0.00466
 846,0.00000440,0.00000194,0.01271801,-0.00000099,0.00000179,0.00700339
 ,-0.00000019,-0.00000458,0.01182488,-0.00000313,-0.00000258,-0.0614716
 3,-0.00000197,0.00000076,-0.00051009,-0.00000005,0.00000139,0.08063459
 ,0.00326500,-0.00000242,-0.00878042,-0.01274037,-0.00000960,-0.3398880
 2,0.00244430,-0.00000583,-0.00009140,0.07897617,0.00000633,-0.05657047
 ,0.00267592,-0.00000043,-0.00480772,0.02991688,0.00000401,-0.03454248,
 -0.09955005,0.00000592,-0.12601251,0.19064976,-0.00000318,-0.25708045,
 -0.19563760,0.00000518,0.82777345\\0.00003794,0.,0.00012267,0.00010411
 ,0.,-0.00043404,0.00005972,0.,0.00004797,0.00010703,0.,0.00042776,0.00
 001775,0.,-0.00010290,0.00034034,0.,-0.00049704,0.00007622,0.,-0.00005
 338,-0.00013291,0.,0.00004279,-0.00061020,0.,0.00044617\\\@

 EXPERIENCE IS THE FRUIT OF THE TREE OF ERRORS.
 Job cpu time:  0 days  0 hours 33 minutes  0.2 seconds.
 File lengths (MBytes):  RWF=   16 Int=    0 D2E=    0 Chk=    3 Scr=    1
 Normal termination of Gaussian 98.
