 Gaussian 98, Revision A.6,
 Gaussian 98:  IBM-RS6000-G98RevA.6 19-Oct-1998

 -----------------------
 #B3LYP/LANL2DZ opt freq
 -----------------------

 -------------------------------
 1H pyrazole C3H4N2 casno=288131
 -------------------------------
 Symbolic Z-matrix:
 Charge =  0 Multiplicity = 1

 SCF Done:  E(RB+HF-LYP) =  -226.071703930     A.U. after   16 cycles
 SCF Done:  E(RB+HF-LYP) =  -226.140458255     A.U. after   14 cycles
 SCF Done:  E(RB+HF-LYP) =  -226.158816768     A.U. after   14 cycles
 SCF Done:  E(RB+HF-LYP) =  -226.159206262     A.U. after   12 cycles
 SCF Done:  E(RB+HF-LYP) =  -226.159346874     A.U. after   11 cycles
 SCF Done:  E(RB+HF-LYP) =  -226.159360744     A.U. after    9 cycles
 SCF Done:  E(RB+HF-LYP) =  -226.159363229     A.U. after    8 cycles
 Optimization completed.
    -- Stationary point found.
 Normal termination of Gaussian 98.

 -------------------------------------------------
 #N Geom=AllCheck Guess=TCheck RB3LYP/LANL2DZ Freq
 -------------------------------------------------

 1H pyrazole C3H4N2 casno=288131
 -------------------------------
 Redundant internal coordinates taken from checkpointfile:
 /wrk/rdj3/Gau-15390.chk
 Charge =  0 Multiplicity = 1

                         Standard orientation:
 ---------------------------------------------------------------------
 Center     Atomic     Atomic              Coordinates (Angstroms)
 Number     Number      Type              X           Y           Z
 ---------------------------------------------------------------------
    1          1             0        2.124789    0.728672    0.000000
    2          6             0        1.126996    0.316414    0.000000
    3          1             0        1.280657   -1.899168    0.000000
    4          6             0        0.676780   -1.004884    0.000000
    5          1             0       -1.477180   -1.712072    0.000000
    6          6             0       -0.748554   -0.914534    0.000000
    7          7             0       -1.171176    0.374091    0.000000
    8          1             0       -0.061367    2.117136    0.000000
    9          7             0        0.000000    1.109261    0.000000
 ---------------------------------------------------------------------

 SCF Done:  E(RB+HF-LYP) =  -226.159363229     A.U. after    1 cycles

  The electronic state is 1-A'.
 Alpha  occ. eigenvalues --  -14.40644 -14.36050 -10.23977 -10.21582 -10.19635
 Alpha  occ. eigenvalues --   -1.04702  -0.82690  -0.78411  -0.61998  -0.59813
 Alpha  occ. eigenvalues --   -0.54983  -0.45422  -0.43515  -0.43447  -0.40966
 Alpha  occ. eigenvalues --   -0.28590  -0.26787  -0.25414
 Alpha virt. eigenvalues --    0.00025   0.05362   0.08044   0.13526   0.15180
 Alpha virt. eigenvalues --    0.16490   0.18343   0.20652   0.23549   0.30994
 Alpha virt. eigenvalues --    0.31267   0.34528   0.35589   0.39621   0.40547

  Exact polarizability:  47.116   1.812  48.037   0.006  -0.007  18.135
 Approx polarizability:  77.902   1.115  79.306   0.000   0.000  22.518

                     1                      2                      3
                    A"                     A"                     A"
 Frequencies --   610.3489               644.5321               679.6875
 Red. masses --     2.8239                 2.0312                 1.7977
 Frc consts  --     0.6198                 0.4971                 0.4893
 IR Inten    --    57.9229                 7.8352                60.7567
 Raman Activ --     0.0000                 0.0000                 0.0000

                     4                      5                      6
                    A"                     A"                     A'
 Frequencies --   782.4306               870.2689               922.4597
 Red. masses --     1.2107                 1.2633                 5.3125
 Frc consts  --     0.4367                 0.5637                 2.6635
 IR Inten    --   137.8544                12.7243                11.9401
 Raman Activ --     0.0000                 0.0000                 0.0000

                     7                      8                      9
                    A"                     A'                     A'
 Frequencies --   924.8412               933.5060              1024.5003
 Red. masses --     1.4003                 4.9846                 2.1277
 Frc consts  --     0.7057                 2.5593                 1.3158
 IR Inten    --     0.6009                 4.2770                39.1498
 Raman Activ --     0.0000                 0.0000                 0.0000

                    10                     11                     12
                    A'                     A'                     A'
 Frequencies --  1062.8186              1141.1936              1164.3398
 Red. masses --     1.4391                 2.3379                 1.9084
 Frc consts  --     0.9577                 1.7939                 1.5243
 IR Inten    --    10.8040                20.1034                 1.2943
 Raman Activ --     0.0000                 0.0000                 0.0000

                    13                     14                     15
                    A'                     A'                     A'
 Frequencies --  1273.2433              1373.7027              1414.9149
 Red. masses --     2.0379                 2.1688                 3.0562
 Frc consts  --     1.9466                 2.4113                 3.6049
 IR Inten    --     2.0438                 3.7223                 9.4570
 Raman Activ --     0.0000                 0.0000                 0.0000

                    16                     17                     18
                    A'                     A'                     A'
 Frequencies --  1451.7143              1551.0945              3288.0862
 Red. masses --     2.4320                 2.7369                 1.0917
 Frc consts  --     3.0197                 3.8796                 6.9542
 IR Inten    --    13.1591                10.4072                 1.5269
 Raman Activ --     0.0000                 0.0000                 0.0000

                    19                     20                     21
                    A'                     A'                     A'
 Frequencies --  3297.2295              3319.9791              3704.6932
 Red. masses --     1.0979                 1.1103                 1.0831
 Frc consts  --     7.0328                 7.2102                 8.7582
 IR Inten    --     3.2246                 0.9499                76.7885
 Raman Activ --     0.0000                 0.0000                 0.0000

 - Thermochemistry -
 -------------------
 Temperature   298.150 Kelvin.  Pressure   1.00000 Atm.
 Atom  1 has atomic number  1 and mass   1.00783

 Molecular mass:    68.03745 amu.
 Principal axes and moments of inertia in atomic units:
                           1         2         3
     EIGENVALUES --   193.22267 196.74736 389.97003
           X            0.96365   0.26717   0.00000
           Y           -0.26717   0.96365   0.00000
           Z            0.00000   0.00000   1.00000
 THIS MOLECULE IS AN ASYMMETRIC TOP.
 ROTATIONAL SYMMETRY NUMBER  1.
 ROTATIONAL TEMPERATURES (KELVIN)      0.44826     0.44023     0.22210
 ROTATIONAL CONSTANTS (GHZ)            9.34021     9.17289     4.62790
 Zero-point vibrational energy     188026.6 (Joules/Mol)
                                   44.93943 (Kcal/Mol)
 WARNING-- EXPLICIT CONSIDERATION OF   1 DEGREES OF FREEDOM AS
           VIBRATIONS MAY CAUSE SIGNIFICANT ERROR
 VIBRATIONAL TEMPERATURES:    878.15   927.33   977.91  1125.74  1252.12
          (KELVIN)           1327.21  1330.63  1343.10  1474.02  1529.15
                             1641.91  1675.22  1831.90  1976.44  2035.74
                             2088.68  2231.67  4730.80  4743.95  4776.68
                             5330.20

 Zero-point correction=                           0.071616 (Hartree/Particle)
 Thermal correction to Energy=                    0.075292
 Thermal correction to Enthalpy=                  0.076236
 Thermal correction to Gibbs Free Energy=         0.045339
 Sum of electronic and zero-point Energies=           -226.087748
 Sum of electronic and thermal Energies=              -226.084072
 Sum of electronic and thermal Enthalpies=            -226.083128
 Sum of electronic and thermal Free Energies=         -226.114024

                     E (Thermal)             CV                S
                      KCAL/MOL        CAL/MOL-KELVIN    CAL/MOL-KELVIN
 TOTAL                   47.246             13.064             65.027
 ELECTRONIC               0.000              0.000              0.000
 TRANSLATIONAL            0.889              2.981             38.570
 ROTATIONAL               0.889              2.981             24.209
 VIBRATIONAL             45.469              7.102              2.247
 VIBRATION  1             0.969              1.010              0.432
                       Q            LOG10(Q)             LN(Q)
 TOTAL BOT       0.139785D-20        -20.854541        -48.019355
 TOTAL V=0       0.121927D+13         12.086098         27.829270
 VIB (BOT)       0.145388D-32        -32.837472        -75.611073
 VIB (BOT)  1    0.242041D+00         -0.616111         -1.418649
 VIB (V=0)       0.126814D+01          0.103167          0.237551
 VIB (V=0)  1    0.105550D+01          0.023460          0.054018
 ELECTRONIC      0.100000D+01          0.000000          0.000000
 TRANSLATIONAL   0.220588D+08          7.343582         16.909224
 ROTATIONAL      0.435861D+05          4.639348         10.682495
 ***** Axes restored to original set *****
 -------------------------------------------------------------------
 Center     Atomic                   Forces (Hartrees/Bohr)
 Number     Number              X              Y              Z
 -------------------------------------------------------------------
    1          1           0.000015095    0.000000000   -0.000055991
    2          6          -0.000145659    0.000000000    0.000495112
    3          1          -0.000013154    0.000000000   -0.000032086
    4          6           0.000249540    0.000000000   -0.000129935
    5          1           0.000028484    0.000000000   -0.000012798
    6          6          -0.000072127    0.000000000    0.000027616
    7          7          -0.000182070    0.000000000   -0.000055003
    8          1          -0.000020350    0.000000000    0.000015266
    9          7           0.000140240    0.000000000   -0.000252180
 -------------------------------------------------------------------
 Cartesian Forces:  Max     0.000495112 RMS     0.000132929

 GradGradGradGradGradGradGradGradGradGradGradGradGradGradGradGradGradGrad
 Berny optimization.
 Internal  Forces:  Max     0.000280125 RMS     0.000068468
 Search for a local minimum.
 Step number   1 out of a maximum of  48
 All quantities printed in internal units (Hartrees-Bohrs-Radians)
 Second derivative matrix not updated -- analytic derivatives used.
     Eigenvalues ---    0.00964   0.01304   0.01751   0.02840   0.05927
     Eigenvalues ---    0.06321   0.09492   0.10510   0.10911   0.11894
     Eigenvalues ---    0.22298   0.26156   0.32669   0.36785   0.38084
     Eigenvalues ---    0.38313   0.38586   0.42324   0.48003   0.49124
     Eigenvalues ---    0.544641000.000001000.000001000.000001000.00000
     Eigenvalues --- 1000.000001000.000001000.000001000.000001000.00000
     Eigenvalues --- 1000.000001000.000001000.000001000.000001000.00000
     Eigenvalues --- 1000.000001000.000001000.00000
 Angle between quadratic step and forces=  30.24 degrees.
 Linear search not attempted -- first point.
 Iteration  1 RMS(Cart)=  0.00019604 RMS(Int)=  0.00000006
 Iteration  2 RMS(Cart)=  0.00000006 RMS(Int)=  0.00000001
 Variable       Old X    -DE/DX   Delta X   Delta X   Delta X     New X
                                 (Linear)    (Quad)   (Total)
    R1        2.04016   0.00001   0.00000   0.00004   0.00004   2.04020
    R2        2.63786   0.00020   0.00000   0.00058   0.00058   2.63844
    R3        2.60393  -0.00028   0.00000  -0.00084  -0.00084   2.60310
    R4        2.03916   0.00003   0.00000   0.00005   0.00005   2.03922
    R5        2.69890  -0.00005   0.00000  -0.00010  -0.00010   2.69880
    R6        2.04140   0.00003   0.00000   0.00007   0.00007   2.04147
    R7        2.56277   0.00001   0.00000   0.00009   0.00009   2.56285
    R8        2.61311  -0.00015   0.00000  -0.00040  -0.00040   2.61271
    R9        1.90814   0.00003   0.00000   0.00005   0.00005   1.90819
    A1        2.29100  -0.00008   0.00000  -0.00075  -0.00075   2.29025
    A2        2.13671   0.00002   0.00000   0.00057   0.00057   2.13728
    A3        1.85547   0.00006   0.00000   0.00019   0.00019   1.85566
    A4        2.21926   0.00003   0.00000  -0.00018  -0.00018   2.21908
    A5        1.83589  -0.00011   0.00000  -0.00038  -0.00038   1.83551
    A6        2.22803   0.00008   0.00000   0.00056   0.00056   2.22860
    A7        2.24777  -0.00001   0.00000  -0.00011  -0.00011   2.24766
    A8        1.95101  -0.00002   0.00000   0.00001   0.00001   1.95102
    A9        2.08441   0.00003   0.00000   0.00010   0.00010   2.08451
   A10        1.81444   0.00005   0.00000   0.00005   0.00005   1.81449
   A11        1.96797   0.00003   0.00000   0.00014   0.00014   1.96810
   A12        2.24468  -0.00001   0.00000  -0.00003  -0.00003   2.24465
   A13        2.07054  -0.00002   0.00000  -0.00010  -0.00010   2.07043
    D1        0.00000   0.00000   0.00000   0.00000   0.00000   0.00000
    D2        3.14159   0.00000   0.00000   0.00000   0.00000   3.14159
    D3        3.14159   0.00000   0.00000   0.00000   0.00000   3.14159
    D4        0.00000   0.00000   0.00000   0.00000   0.00000   0.00000
    D5        3.14159   0.00000   0.00000   0.00000   0.00000   3.14159
    D6        0.00000   0.00000   0.00000   0.00000   0.00000   0.00000
    D7        0.00000   0.00000   0.00000   0.00000   0.00000   0.00000
    D8        3.14159   0.00000   0.00000   0.00000   0.00000   3.14159
    D9        3.14159   0.00000   0.00000   0.00000   0.00000   3.14159
   D10        0.00000   0.00000   0.00000   0.00000   0.00000   0.00000
   D11        0.00000   0.00000   0.00000   0.00000   0.00000   0.00000
   D12        3.14159   0.00000   0.00000   0.00000   0.00000   3.14159
   D13        0.00000   0.00000   0.00000   0.00000   0.00000   0.00000
   D14        3.14159   0.00000   0.00000   0.00000   0.00000   3.14159
   D15        0.00000   0.00000   0.00000   0.00000   0.00000   0.00000
   D16        3.14159   0.00000   0.00000   0.00000   0.00000   3.14159
         Item               Value     Threshold  Converged?
 Maximum Force            0.000280     0.000450     YES
 RMS     Force            0.000068     0.000300     YES
 Maximum Displacement     0.000723     0.001800     YES
 RMS     Displacement     0.000196     0.001200     YES
 Predicted change in Energy=-2.995835D-07
 Optimization completed.
    -- Stationary point found.
                         ----------------------------
                         !   Optimized Parameters   !
                         ! (Angstroms and Degrees)  !
 ------------------------                            -------------------------
 ! Name  Definition              Value          Derivative Info.             !
 -----------------------------------------------------------------------------
 ! R1    R(1,2)                  1.0796         -DE/DX =    0.               !
 ! R2    R(2,4)                  1.3959         -DE/DX =    0.0002           !
 ! R3    R(2,9)                  1.3779         -DE/DX =   -0.0003           !
 ! R4    R(3,4)                  1.0791         -DE/DX =    0.               !
 ! R5    R(4,6)                  1.4282         -DE/DX =    0.               !
 ! R6    R(5,6)                  1.0803         -DE/DX =    0.               !
 ! R7    R(6,7)                  1.3562         -DE/DX =    0.               !
 ! R8    R(7,9)                  1.3828         -DE/DX =   -0.0001           !
 ! R9    R(8,9)                  1.0097         -DE/DX =    0.               !
 ! A1    A(1,2,4)              131.2648         -DE/DX =   -0.0001           !
 ! A2    A(1,2,9)              122.4245         -DE/DX =    0.               !
 ! A3    A(4,2,9)              106.3106         -DE/DX =    0.0001           !
 ! A4    A(2,4,3)              127.1544         -DE/DX =    0.               !
 ! A5    A(2,4,6)              105.1889         -DE/DX =   -0.0001           !
 ! A6    A(3,4,6)              127.6568         -DE/DX =    0.0001           !
 ! A7    A(4,6,5)              128.7876         -DE/DX =    0.               !
 ! A8    A(4,6,7)              111.7846         -DE/DX =    0.               !
 ! A9    A(5,6,7)              119.4277         -DE/DX =    0.               !
 ! A10   A(6,7,9)              103.9597         -DE/DX =    0.               !
 ! A11   A(2,9,7)              112.7562         -DE/DX =    0.               !
 ! A12   A(2,9,8)              128.6108         -DE/DX =    0.               !
 ! A13   A(7,9,8)              118.633          -DE/DX =    0.               !
 ! D1    D(1,2,4,3)              0.             -DE/DX =    0.               !
 ! D2    D(1,2,4,6)            180.             -DE/DX =    0.               !
 ! D3    D(9,2,4,3)            180.             -DE/DX =    0.               !
 ! D4    D(9,2,4,6)              0.             -DE/DX =    0.               !
 ! D5    D(1,2,9,7)            180.             -DE/DX =    0.               !
 ! D6    D(1,2,9,8)              0.             -DE/DX =    0.               !
 ! D7    D(4,2,9,7)              0.             -DE/DX =    0.               !
 ! D8    D(4,2,9,8)            180.             -DE/DX =    0.               !
 ! D9    D(2,4,6,5)            180.             -DE/DX =    0.               !
 ! D10   D(2,4,6,7)              0.             -DE/DX =    0.               !
 ! D11   D(3,4,6,5)              0.             -DE/DX =    0.               !
 ! D12   D(3,4,6,7)            180.             -DE/DX =    0.               !
 ! D13   D(4,6,7,9)              0.             -DE/DX =    0.               !
 ! D14   D(5,6,7,9)            180.             -DE/DX =    0.               !
 ! D15   D(6,7,9,2)              0.             -DE/DX =    0.               !
 ! D16   D(6,7,9,8)            180.             -DE/DX =    0.               !
 -----------------------------------------------------------------------------
 GradGradGradGradGradGradGradGradGradGradGradGradGradGradGradGradGradGrad

 1\1\GINC-INDIUM\Freq\RB3LYP\LANL2DZ\C3H4N2\RDJ3\27-Oct-2000\0\\#N GEOM
 =ALLCHECK GUESS=TCHECK RB3LYP/LANL2DZ FREQ\\1H pyrazole C3H4N2 casno=2
 88131\\0,1\H,-1.8985926653,0.,-1.2004326566\C,-0.9523822343,0.,-0.6805
 922542\H,0.6788876234,0.,-2.1877003254\C,0.3597372258,0.,-1.1568976081
 \H,2.2598438287,0.,0.0797318595\C,1.1817719975,0.,0.0110054594\N,0.441
 6601029,0.,1.147402399\H,-1.6123021854,0.,1.3735040057\N,-0.8648884651
 ,0.,0.6945695345\\Version=IBM-RS6000-G98RevA.6\State=1-A'\HF=-226.1593
 632\RMSD=5.463e-09\RMSF=1.329e-04\Dipole=-0.8282291,0.,-0.5337597\Dipo
 leDeriv=-0.0021459,0.0002029,-0.0562826,-0.0000302,0.2387879,0.0000552
 ,-0.0489025,0.0001387,0.0857528,0.0992813,-0.0004117,-0.1541882,0.0000
 079,-0.153537,-0.0000743,-0.3344923,0.0004878,0.2249829,0.1152412,-0.0
 001072,0.039043,-0.0000179,0.2177585,0.00007,0.0419233,0.0004552,-0.03
 91206,-0.259269,0.0003809,-0.0019143,0.0000798,-0.2518001,-0.0001011,-
 0.0350759,-0.000727,-0.0397906,-0.0424019,-0.0003862,-0.0050719,0.0000
 008,0.184723,-0.000038,-0.0221007,0.0000122,0.1058652,0.1860167,0.0004
 123,0.0832243,-0.0002471,-0.1201723,0.0003261,0.2005115,0.0000262,0.14
 39227,0.0835411,0.0000198,-0.1690679,0.0001135,-0.2206667,-0.0001635,-
 0.0634862,0.0000257,-0.4736238,0.2163949,0.0001604,-0.0250025,-0.00006
 03,0.3694239,0.0000903,-0.0301084,-0.0001087,0.2199111,-0.3966578,-0.0
 002713,0.2892598,0.0001534,-0.2645173,-0.0001648,0.2917314,-0.0003101,
 -0.2278993\Polar=49.445508,0.0017667,18.1348448,-0.0584417,-0.0091664,
 45.7077619\PG=CS [SG(C3H4N2)]\NImag=0\\0.30384096,0.00000215,0.0216689
 5,0.14013820,0.00000147,0.12962838,-0.30255431,-0.00000282,-0.12518939
 ,0.85758006,-0.00000217,-0.02902396,-0.00000128,0.00000271,0.12890993,
 -0.13486157,0.00000377,-0.12662019,0.10641568,-0.00000214,0.62762109,-
 0.00005194,-0.00000119,-0.00094321,0.00204775,0.00000051,0.02648901,0.
 07794970,0.00000170,-0.00285701,0.00000106,-0.00000228,-0.00021406,0.0
 0000253,-0.00000062,0.02361981,0.00077104,0.00000381,-0.00008293,-0.00
 692192,-0.00000127,0.00080551,-0.09509384,0.00000182,0.35288994,-0.004
 62060,0.00000276,0.01197439,-0.34075439,-0.00000097,0.07555165,-0.0838
 2559,0.00000151,0.09098498,0.61406214,-0.00000053,0.00240504,-0.000000
 33,0.00000260,-0.06936343,-0.00000270,0.00000042,-0.03036854,-0.000000
 52,-0.00000084,0.12774573,-0.01616767,-0.00000480,0.01188907,0.0955684
 5,0.00000277,-0.13811277,0.08845590,-0.00000314,-0.34454782,-0.1227394
 5,0.00000458,0.83386240,-0.00038652,-0.00000493,0.00011038,0.00041667,
 0.00000207,-0.00037451,-0.00027779,-0.00000259,-0.00080687,-0.00245882
 ,-0.00000003,0.00655755,0.37981222,0.00000165,0.00067335,0.00000117,-0
 .00000154,0.00448853,0.00000227,-0.00000076,-0.00183083,0.00000309,0.0
 0000189,0.00137755,-0.00000214,-0.00000382,0.02463573,-0.00082816,0.00
 000002,0.00097924,-0.00286852,-0.00000016,-0.00584879,0.00099674,0.000
 00010,0.00005591,-0.02226234,-0.00000010,0.00657919,0.01954609,-0.0000
 0002,0.05520278,-0.00334598,0.00000364,0.00478439,-0.05951688,-0.00000
 092,-0.00595841,0.01182538,0.00000158,0.01428643,-0.17656377,-0.000001
 67,-0.10058521,-0.36619214,0.00000328,-0.03126918,0.88297933,0.0000012
 4,0.00539820,-0.00000004,-0.00000216,0.01244958,0.00000207,0.00000159,
 -0.00149199,-0.00001133,-0.00000623,-0.06921977,0.00000255,0.00000722,
 -0.03164580,0.00000060,-0.00000569,0.14035052,0.00076627,0.00000123,-0
 .00219369,-0.06307867,-0.00000249,0.03078714,-0.01751134,0.00000185,-0
 .00758180,-0.07328856,-0.00000370,-0.22669146,-0.02197545,-0.00000215,
 -0.05772311,-0.00074143,0.00001562,0.57376020,0.00113655,0.00000070,0.
 00121566,-0.05452332,-0.00000005,-0.04434278,-0.00204313,0.00000010,-0
 .00099955,0.02149105,0.00000135,0.03095745,-0.01188854,0.00000104,0.02
 887092,-0.16958274,-0.00000664,0.14205462,0.45749479,-0.00000387,0.005
 40326,-0.00000188,-0.00000012,0.01768410,-0.00000113,-0.00000003,0.006
 10982,0.00000548,0.00000372,0.02053002,-0.00000617,0.00000350,-0.00659
 814,-0.00000022,0.00000352,-0.06997166,-0.00001084,0.00000117,0.098921
 91,0.00299997,-0.00000196,-0.00421175,-0.02078839,0.00000245,-0.066718
 22,-0.00554982,-0.00000203,-0.00260421,-0.02984260,0.00000151,-0.07853
 034,-0.00490186,0.00000091,0.00463216,0.09238600,-0.00001154,-0.273248
 61,-0.05650250,0.00001446,0.51370820,-0.00029491,0.00000103,0.00039514
 ,0.01020647,-0.00000041,-0.01062189,0.00070299,0.00000067,0.00006929,0
 .00132094,-0.00000073,-0.00348167,-0.00052673,0.00000076,0.00154055,-0
 .00669102,0.00000067,-0.00549853,-0.01832249,0.00000009,0.02587172,0.2
 9686014,0.00000004,-0.00138342,0.,-0.00000139,-0.00546155,0.00000232,-
 0.00000004,0.00191057,-0.00000020,0.00000066,0.00339088,-0.00000269,0.
 00000043,0.00180007,0.00000009,0.00000086,0.00442533,0.00000205,-0.000
 00137,-0.00959965,-0.00000074,0.00000096,0.01503005,-0.00083539,-0.000
 00086,-0.00000085,0.02596347,0.00000036,-0.00592252,0.00101165,-0.0000
 0057,0.00017004,-0.00262260,0.00000049,-0.00610382,-0.00028255,-0.0000
 0058,0.00093523,-0.00720682,-0.00000098,0.00094855,-0.01436339,0.00000
 092,0.01379772,-0.20933996,-0.00000071,0.25676085,0.00627676,-0.000001
 36,-0.03248554,-0.11290203,-0.00000078,-0.01229719,-0.00632736,-0.0000
 0008,-0.00228957,-0.02865096,-0.00000057,0.02143465,0.00150166,-0.0000
 0251,0.00627391,-0.11291218,0.00001000,0.03927310,-0.22376217,-0.00000
 796,-0.00367253,-0.28325538,-0.00000015,0.20767558,0.76003166,-0.00000
 021,-0.00228441,-0.00000015,0.00000500,-0.05946915,-0.00000697,0.00000
 011,0.00512222,-0.00000088,-0.00000250,0.01350251,0.00000904,-0.000001
 86,0.00709955,-0.00000030,-0.00000460,0.00970559,-0.00000156,0.0000036
 7,-0.06247967,-0.00000307,-0.00000304,-0.01011228,0.00000193,0.0000034
 2,0.09891565,0.00801731,-0.00000268,-0.00938728,-0.00910070,0.00000176
 ,-0.31599125,0.00214491,-0.00000162,0.00089536,0.07224453,0.00000078,-
 0.05834446,0.00212722,-0.00000255,-0.00481261,0.03430422,0.00000306,-0
 .03805722,-0.08689042,-0.00000061,-0.10682495,0.20106535,-0.00000012,-
 0.26058520,-0.22391240,0.00000196,0.79310761\\-0.00001510,0.,0.0000559
 9,0.00014566,0.,-0.00049511,0.00001315,0.,0.00003209,-0.00024954,0.,0.
 00012993,-0.00002848,0.,0.00001280,0.00007213,0.,-0.00002762,0.0001820
 7,0.,0.00005500,0.00002035,0.,-0.00001527,-0.00014024,0.,0.00025218\\\
 @

 ON A CLEAR DISK YOU CAN SEEK FOREVER.
 Job cpu time:  0 days  0 hours  3 minutes 18.7 seconds.
 File lengths (MBytes):  RWF=   17 Int=    0 D2E=    0 Chk=    8 Scr=    1
 Normal termination of Gaussian 98.
