 Gaussian 98, Revision A.6,
 Gaussian 98:  IBM-RS6000-G98RevA.6 19-Oct-1998

 -----------------------
 #B3LYP/CEP-31G opt freq
 -----------------------

 -------------------------------
 1H pyrazole C3H4N2 casno=288131
 -------------------------------
 Symbolic Z-matrix:
 Charge =  0 Multiplicity = 1

 SCF Done:  E(RB+HF-LYP) =  -38.9524659434     A.U. after   16 cycles
 SCF Done:  E(RB+HF-LYP) =  -39.0322426644     A.U. after   15 cycles
 SCF Done:  E(RB+HF-LYP) =  -39.0585022320     A.U. after   15 cycles
 SCF Done:  E(RB+HF-LYP) =  -39.0591417072     A.U. after   13 cycles
 SCF Done:  E(RB+HF-LYP) =  -39.0593654636     A.U. after   11 cycles
 SCF Done:  E(RB+HF-LYP) =  -39.0594014206     A.U. after   10 cycles
 SCF Done:  E(RB+HF-LYP) =  -39.0594051824     A.U. after    9 cycles
 Optimization completed.
    -- Stationary point found.
 Normal termination of Gaussian 98.

 -------------------------------------------------
 #N Geom=AllCheck Guess=TCheck RB3LYP/CEP-31G Freq
 -------------------------------------------------

 1H pyrazole C3H4N2 casno=288131
 -------------------------------
 Redundant internal coordinates taken from checkpointfile:
 /wrk/rdj3/Gau-15746.chk
 Charge =  0 Multiplicity = 1

                         Standard orientation:
 ---------------------------------------------------------------------
 Center     Atomic     Atomic              Coordinates (Angstroms)
 Number     Number      Type              X           Y           Z
 ---------------------------------------------------------------------
    1          1             0        2.135170    0.714609    0.000000
    2          6             0        1.131367    0.300790    0.000000
    3          1             0        1.267877   -1.934794    0.000000
    4          6             0        0.668051   -1.031081    0.000000
    5          1             0       -1.516084   -1.714113    0.000000
    6          6             0       -0.772006   -0.922296    0.000000
    7          7             0       -1.190364    0.377827    0.000000
    8          1             0       -0.044790    2.120380    0.000000
    9          7             0        0.000000    1.107026    0.000000
 ---------------------------------------------------------------------

 SCF Done:  E(RB+HF-LYP) =  -39.0594051824     A.U. after    1 cycles

  The electronic state is 1-A'.
 Alpha  occ. eigenvalues --   -1.04386  -0.82920  -0.78407  -0.61932  -0.59696
 Alpha  occ. eigenvalues --   -0.54780  -0.45077  -0.43368  -0.43039  -0.40762
 Alpha  occ. eigenvalues --   -0.28647  -0.26526  -0.25160
 Alpha virt. eigenvalues --   -0.00056   0.05237   0.07938   0.13333   0.14745
 Alpha virt. eigenvalues --    0.16416   0.17371   0.20843   0.22959   0.27644
 Alpha virt. eigenvalues --    0.29872   0.30966   0.34804   0.35533   0.36921

  Exact polarizability:  48.321   2.027  49.294  -0.002   0.000  19.957
 Approx polarizability:  80.036   1.209  81.378   0.000   0.000  24.463

                     1                      2                      3
                    A"                     A"                     A"
 Frequencies --   590.9902               635.7186               670.9942
 Red. masses --     3.2181                 2.3835                 1.5561
 Frc consts  --     0.6622                 0.5675                 0.4128
 IR Inten    --    56.4837                 7.6488                70.7405
 Raman Activ --     0.0000                 0.0000                 0.0000

                     4                      5                      6
                    A"                     A"                     A'
 Frequencies --   786.3766               876.7603               907.4904
 Red. masses --     1.2077                 1.2505                 5.2729
 Frc consts  --     0.4400                 0.5664                 2.5585
 IR Inten    --   147.0442                17.6727                 9.5752
 Raman Activ --     0.0000                 0.0000                 0.0000

                     7                      8                      9
                    A'                     A"                     A'
 Frequencies --   915.3178               927.5181              1014.6290
 Red. masses --     5.0357                 1.3610                 2.1432
 Frc consts  --     2.4857                 0.6899                 1.2999
 IR Inten    --     3.5612                 0.3114                41.5084
 Raman Activ --     0.0000                 0.0000                 0.0000

                    10                     11                     12
                    A'                     A'                     A'
 Frequencies --  1054.8292              1129.5023              1149.1967
 Red. masses --     1.4432                 2.1812                 2.0107
 Frc consts  --     0.9461                 1.6395                 1.5646
 IR Inten    --    10.0292                18.8578                 0.5700
 Raman Activ --     0.0000                 0.0000                 0.0000

                    13                     14                     15
                    A'                     A'                     A'
 Frequencies --  1256.3085              1357.5738              1412.3000
 Red. masses --     2.0080                 2.1942                 2.9520
 Frc consts  --     1.8672                 2.3826                 3.4691
 IR Inten    --     2.4743                 2.8816                10.0366
 Raman Activ --     0.0000                 0.0000                 0.0000

                    16                     17                     18
                    A'                     A'                     A'
 Frequencies --  1442.1978              1542.4407              3265.6316
 Red. masses --     2.4530                 2.7939                 1.0915
 Frc consts  --     3.0060                 3.9163                 6.8579
 IR Inten    --    13.5928                 9.1685                 1.7328
 Raman Activ --     0.0000                 0.0000                 0.0000

                    19                     20                     21
                    A'                     A'                     A'
 Frequencies --  3274.8467              3297.2099              3702.2270
 Red. masses --     1.0982                 1.1103                 1.0830
 Frc consts  --     6.9394                 7.1121                 8.7461
 IR Inten    --     5.9015                 1.6535                67.5638
 Raman Activ --     0.0000                 0.0000                 0.0000

 - Thermochemistry -
 -------------------
 Temperature   298.150 Kelvin.  Pressure   1.00000 Atm.
 Atom  1 has atomic number  1 and mass   1.00783

 Molecular mass:    68.03745 amu.
 Principal axes and moments of inertia in atomic units:
                           1         2         3
     EIGENVALUES --   196.04054 200.85422 396.89476
           X            0.96484   0.26284   0.00000
           Y           -0.26284   0.96484   0.00000
           Z            0.00000   0.00000   1.00000
 THIS MOLECULE IS AN ASYMMETRIC TOP.
 ROTATIONAL SYMMETRY NUMBER  1.
 ROTATIONAL TEMPERATURES (KELVIN)      0.44181     0.43123     0.21823
 ROTATIONAL CONSTANTS (GHZ)            9.20596     8.98533     4.54715
 Zero-point vibrational energy     186677.6 (Joules/Mol)
                                   44.61703 (Kcal/Mol)
 WARNING-- EXPLICIT CONSIDERATION OF   1 DEGREES OF FREEDOM AS
           VIBRATIONS MAY CAUSE SIGNIFICANT ERROR
 VIBRATIONAL TEMPERATURES:    850.30   914.65   965.41  1131.41  1261.46
          (KELVIN)           1305.67  1316.93  1334.48  1459.82  1517.66
                             1625.09  1653.43  1807.54  1953.23  2031.97
                             2074.99  2219.22  4698.49  4711.75  4743.92
                             5326.65

 Zero-point correction=                           0.071102 (Hartree/Particle)
 Thermal correction to Energy=                    0.074806
 Thermal correction to Enthalpy=                  0.075750
 Thermal correction to Gibbs Free Energy=         0.044790
 Sum of electronic and zero-point Energies=            -38.988303
 Sum of electronic and thermal Energies=               -38.984599
 Sum of electronic and thermal Enthalpies=             -38.983655
 Sum of electronic and thermal Free Energies=          -39.014615

                     E (Thermal)             CV                S
                      KCAL/MOL        CAL/MOL-KELVIN    CAL/MOL-KELVIN
 TOTAL                   46.941             13.224             65.161
 ELECTRONIC               0.000              0.000              0.000
 TRANSLATIONAL            0.889              2.981             38.570
 ROTATIONAL               0.889              2.981             24.262
 VIBRATIONAL             45.164              7.262              2.329
 VIBRATION  1             0.948              1.051              0.465
                       Q            LOG10(Q)             LN(Q)
 TOTAL BOT       0.250160D-20        -20.601783        -47.437358
 TOTAL V=0       0.126629D+13         12.102533         27.867112
 VIB (BOT)       0.253416D-32        -32.596166        -75.055446
 VIB (BOT)  1    0.255001D+00         -0.593459         -1.366490
 VIB (V=0)       0.128277D+01          0.108150          0.249024
 VIB (V=0)  1    0.106127D+01          0.025826          0.059467
 ELECTRONIC      0.100000D+01          0.000000          0.000000
 TRANSLATIONAL   0.220588D+08          7.343582         16.909224
 ROTATIONAL      0.447508D+05          4.650800         10.708864
 ***** Axes restored to original set *****
 -------------------------------------------------------------------
 Center     Atomic                   Forces (Hartrees/Bohr)
 Number     Number              X              Y              Z
 -------------------------------------------------------------------
    1          1          -0.000095495    0.000000000   -0.000101442
    2          6          -0.000048870    0.000000000    0.000777036
    3          1           0.000037598    0.000000000   -0.000133707
    4          6           0.000335677    0.000000000   -0.000059210
    5          1           0.000166092    0.000000000    0.000001884
    6          6          -0.000260415    0.000000000    0.000077872
    7          7           0.000040978    0.000000000   -0.000173229
    8          1          -0.000045048    0.000000000    0.000108668
    9          7          -0.000130515    0.000000000   -0.000497873
 -------------------------------------------------------------------
 Cartesian Forces:  Max     0.000777036 RMS     0.000208430

 GradGradGradGradGradGradGradGradGradGradGradGradGradGradGradGradGradGrad
 Berny optimization.
 Internal  Forces:  Max     0.000441021 RMS     0.000111647
 Search for a local minimum.
 Step number   1 out of a maximum of  48
 All quantities printed in internal units (Hartrees-Bohrs-Radians)
 Second derivative matrix not updated -- analytic derivatives used.
     Eigenvalues ---    0.00960   0.01332   0.01789   0.02940   0.05713
     Eigenvalues ---    0.06123   0.09399   0.10346   0.10924   0.11857
     Eigenvalues ---    0.21932   0.25902   0.32390   0.36312   0.37520
     Eigenvalues ---    0.37793   0.38048   0.41424   0.47103   0.48881
     Eigenvalues ---    0.534551000.000001000.000001000.000001000.00000
     Eigenvalues --- 1000.000001000.000001000.000001000.000001000.00000
     Eigenvalues --- 1000.000001000.000001000.000001000.000001000.00000
     Eigenvalues --- 1000.000001000.000001000.00000
 Angle between quadratic step and forces=  30.56 degrees.
 Linear search not attempted -- first point.
 Iteration  1 RMS(Cart)=  0.00027029 RMS(Int)=  0.00000010
 Iteration  2 RMS(Cart)=  0.00000011 RMS(Int)=  0.00000002
 Variable       Old X    -DE/DX   Delta X   Delta X   Delta X     New X
                                 (Linear)    (Quad)   (Total)
    R1        2.05178   0.00013   0.00000   0.00038   0.00038   2.05216
    R2        2.66481   0.00034   0.00000   0.00086   0.00086   2.66566
    R3        2.62530  -0.00044   0.00000  -0.00133  -0.00133   2.62397
    R4        2.04971   0.00014   0.00000   0.00034   0.00034   2.05006
    R5        2.72907  -0.00010   0.00000  -0.00020  -0.00020   2.72887
    R6        2.05331   0.00017   0.00000   0.00045   0.00045   2.05376
    R7        2.58094  -0.00010   0.00000  -0.00023  -0.00023   2.58072
    R8        2.63798   0.00003   0.00000   0.00027   0.00027   2.63824
    R9        1.91683   0.00011   0.00000   0.00020   0.00020   1.91703
    A1        2.29659  -0.00009   0.00000  -0.00095  -0.00095   2.29565
    A2        2.13142  -0.00001   0.00000   0.00049   0.00049   2.13192
    A3        1.85517   0.00010   0.00000   0.00045   0.00045   1.85562
    A4        2.22085   0.00005   0.00000  -0.00001  -0.00001   2.22084
    A5        1.83017  -0.00012   0.00000  -0.00053  -0.00053   1.82964
    A6        2.23217   0.00007   0.00000   0.00054   0.00054   2.23270
    A7        2.24972   0.00001   0.00000  -0.00010  -0.00010   2.24963
    A8        1.95752  -0.00004   0.00000   0.00010   0.00010   1.95762
    A9        2.07595   0.00003   0.00000  -0.00001  -0.00001   2.07594
   A10        1.80910   0.00012   0.00000   0.00013   0.00013   1.80922
   A11        1.97282  -0.00006   0.00000  -0.00016  -0.00016   1.97267
   A12        2.23411   0.00008   0.00000   0.00067   0.00067   2.23478
   A13        2.07625  -0.00002   0.00000  -0.00051  -0.00051   2.07574
    D1        0.00000   0.00000   0.00000   0.00000   0.00000   0.00000
    D2        3.14159   0.00000   0.00000   0.00000   0.00000   3.14159
    D3        3.14159   0.00000   0.00000   0.00000   0.00000   3.14159
    D4        0.00000   0.00000   0.00000   0.00000   0.00000   0.00000
    D5        3.14159   0.00000   0.00000   0.00000   0.00000   3.14159
    D6        0.00000   0.00000   0.00000   0.00000   0.00000   0.00000
    D7        0.00000   0.00000   0.00000   0.00000   0.00000   0.00000
    D8        3.14159   0.00000   0.00000   0.00000   0.00000   3.14159
    D9        3.14159   0.00000   0.00000   0.00000   0.00000   3.14159
   D10        0.00000   0.00000   0.00000   0.00000   0.00000   0.00000
   D11        0.00000   0.00000   0.00000   0.00000   0.00000   0.00000
   D12        3.14159   0.00000   0.00000   0.00000   0.00000   3.14159
   D13        0.00000   0.00000   0.00000   0.00000   0.00000   0.00000
   D14        3.14159   0.00000   0.00000   0.00000   0.00000   3.14159
   D15        0.00000   0.00000   0.00000   0.00000   0.00000   0.00000
   D16        3.14159   0.00000   0.00000   0.00000   0.00000   3.14159
         Item               Value     Threshold  Converged?
 Maximum Force            0.000441     0.000450     YES
 RMS     Force            0.000112     0.000300     YES
 Maximum Displacement     0.000966     0.001800     YES
 RMS     Displacement     0.000270     0.001200     YES
 Predicted change in Energy=-7.159375D-07
 Optimization completed.
    -- Stationary point found.
                         ----------------------------
                         !   Optimized Parameters   !
                         ! (Angstroms and Degrees)  !
 ------------------------                            -------------------------
 ! Name  Definition              Value          Derivative Info.             !
 -----------------------------------------------------------------------------
 ! R1    R(1,2)                  1.0858         -DE/DX =    0.0001           !
 ! R2    R(2,4)                  1.4102         -DE/DX =    0.0003           !
 ! R3    R(2,9)                  1.3892         -DE/DX =   -0.0004           !
 ! R4    R(3,4)                  1.0847         -DE/DX =    0.0001           !
 ! R5    R(4,6)                  1.4442         -DE/DX =   -0.0001           !
 ! R6    R(5,6)                  1.0866         -DE/DX =    0.0002           !
 ! R7    R(6,7)                  1.3658         -DE/DX =   -0.0001           !
 ! R8    R(7,9)                  1.396          -DE/DX =    0.               !
 ! R9    R(8,9)                  1.0143         -DE/DX =    0.0001           !
 ! A1    A(1,2,4)              131.5852         -DE/DX =   -0.0001           !
 ! A2    A(1,2,9)              122.1215         -DE/DX =    0.               !
 ! A3    A(4,2,9)              106.2933         -DE/DX =    0.0001           !
 ! A4    A(2,4,3)              127.2452         -DE/DX =    0.0001           !
 ! A5    A(2,4,6)              104.8611         -DE/DX =   -0.0001           !
 ! A6    A(3,4,6)              127.8937         -DE/DX =    0.0001           !
 ! A7    A(4,6,5)              128.8997         -DE/DX =    0.               !
 ! A8    A(4,6,7)              112.1574         -DE/DX =    0.               !
 ! A9    A(5,6,7)              118.9429         -DE/DX =    0.               !
 ! A10   A(6,7,9)              103.6537         -DE/DX =    0.0001           !
 ! A11   A(2,9,7)              113.0345         -DE/DX =   -0.0001           !
 ! A12   A(2,9,8)              128.0053         -DE/DX =    0.0001           !
 ! A13   A(7,9,8)              118.9602         -DE/DX =    0.               !
 ! D1    D(1,2,4,3)              0.             -DE/DX =    0.               !
 ! D2    D(1,2,4,6)            180.             -DE/DX =    0.               !
 ! D3    D(9,2,4,3)            180.             -DE/DX =    0.               !
 ! D4    D(9,2,4,6)              0.             -DE/DX =    0.               !
 ! D5    D(1,2,9,7)            180.             -DE/DX =    0.               !
 ! D6    D(1,2,9,8)              0.             -DE/DX =    0.               !
 ! D7    D(4,2,9,7)              0.             -DE/DX =    0.               !
 ! D8    D(4,2,9,8)            180.             -DE/DX =    0.               !
 ! D9    D(2,4,6,5)            180.             -DE/DX =    0.               !
 ! D10   D(2,4,6,7)              0.             -DE/DX =    0.               !
 ! D11   D(3,4,6,5)              0.             -DE/DX =    0.               !
 ! D12   D(3,4,6,7)            180.             -DE/DX =    0.               !
 ! D13   D(4,6,7,9)              0.             -DE/DX =    0.               !
 ! D14   D(5,6,7,9)            180.             -DE/DX =    0.               !
 ! D15   D(6,7,9,2)              0.             -DE/DX =    0.               !
 ! D16   D(6,7,9,8)            180.             -DE/DX =    0.               !
 -----------------------------------------------------------------------------
 GradGradGradGradGradGradGradGradGradGradGradGradGradGradGradGradGradGrad

 1\1\GINC-INDIUM\Freq\RB3LYP\CEP-31G\C3H4N2\RDJ3\10-Sep-2000\0\\#N GEOM
 =ALLCHECK GUESS=TCHECK RB3LYP/CEP-31G FREQ\\1H pyrazole C3H4N2 casno=2
 88131\\0,1\H,-1.9049674309,0.,-1.2002976365\C,-0.9491200984,0.,-0.6853
 001046\H,0.6949102801,0.,-2.2063634186\C,0.3751525895,0.,-1.1699060703
 \H,2.2866789339,0.,0.0882855772\C,1.2026786102,0.,0.0136466822\N,0.461
 1876513,0.,1.1606145364\H,-1.6129270744,0.,1.3771288642\N,-0.856895474
 ,0.,0.7008823805\\Version=IBM-RS6000-G98RevA.6\State=1-A'\HF=-39.05940
 52\RMSD=3.307e-09\RMSF=2.084e-04\Dipole=-0.8216646,0.,-0.5841151\Dipol
 eDeriv=-0.0136577,-0.0001383,-0.0605087,-0.0000317,0.2499877,-0.000016
 8,-0.0515558,-0.0000974,0.0840892,0.1162249,0.0000915,-0.152222,-0.000
 2547,-0.1405414,0.0004407,-0.3438995,-0.0000094,0.2300413,0.1100224,-0
 .0000824,0.0386834,0.0000796,0.2213998,-0.0000529,0.0421418,0.0002669,
 -0.0475848,-0.257977,0.0001368,-0.0109283,-0.0000698,-0.2583007,-0.000
 0355,-0.0390864,-0.000199,-0.0452079,-0.0560977,0.0000826,-0.0049701,0
 .0001364,0.1903768,-0.0000671,-0.0331193,-0.0000104,0.1042239,0.210346
 8,-0.000072,0.0705347,-0.0003717,-0.1201644,0.0006295,0.2168539,-0.000
 0642,0.1644949,0.0897867,-0.0001202,-0.1600266,0.0004927,-0.2055449,-0
 .0007757,-0.0475416,0.0000579,-0.4610455,0.2006228,0.0000916,-0.021089
 2,-0.0000279,0.3852391,0.0001053,-0.0294058,-0.0001009,0.2029663,-0.39
 92702,0.0000104,0.3005266,0.0000471,-0.3224517,-0.0002276,0.2856129,0.
 0001567,-0.2319771\Polar=50.8914992,0.0009077,19.9572754,-0.0748497,0.
 0017458,46.72426\PG=CS [SG(C3H4N2)]\NImag=0\\0.30234132,-0.00000091,0.
 02153339,0.13672715,-0.00000064,0.12433461,-0.30159914,0.00000102,-0.1
 2141187,0.85255385,0.00000794,-0.02881272,0.00000527,-0.00000771,0.123
 40993,-0.13086280,0.00000219,-0.12099451,0.09662783,0.00000804,0.60722
 672,0.00006107,-0.00000067,-0.00088309,0.00191829,0.00000151,0.0259700
 4,0.07652058,-0.00000017,-0.00272054,0.00000014,-0.00000049,-0.0000183
 1,-0.00000117,0.00000031,0.02417191,0.00076483,0.00000165,-0.00011082,
 -0.00639706,-0.00000381,0.00112300,-0.09359913,-0.00000114,0.34834223,
 -0.00335590,0.00000161,0.01137661,-0.34429848,-0.00000414,0.07736445,-
 0.08204877,0.00000057,0.08982215,0.60974762,0.00000043,0.00213361,-0.0
 0000009,0.00000030,-0.06512539,0.00000362,0.00000007,-0.03188728,-0.00
 000087,-0.00000020,0.12599768,-0.01589395,-0.00000032,0.01162704,0.098
 18864,-0.00000205,-0.13647399,0.08661776,0.00000117,-0.34063872,-0.121
 19082,0.00000171,0.82347447,-0.00036349,-0.00000025,0.00006904,-0.0005
 6640,0.00000215,-0.00018963,-0.00016921,-0.00000049,-0.00075012,-0.001
 31361,-0.00000003,0.00666693,0.37440889,-0.00000203,0.00059922,-0.0000
 0085,0.00000098,0.00517309,-0.00000848,-0.00000024,-0.00178743,0.00000
 197,-0.00000022,0.00104828,-0.00000256,0.00000054,0.02514169,-0.000972
 07,0.00000014,0.00112096,-0.00321524,-0.00000026,-0.00608714,0.0008947
 9,0.00000025,-0.00003968,-0.02097172,-0.00000025,0.00687807,0.02067317
 ,0.00000021,0.05495218,-0.00380578,0.00000064,0.00474338,-0.05466505,-
 0.00000522,-0.00558675,0.01151360,0.00000145,0.01321247,-0.17594689,0.
 00000055,-0.10126154,-0.36098137,0.00000001,-0.03296043,0.86405882,0.0
 0001259,0.00575330,0.00000845,-0.00000984,0.00922978,0.00000925,0.0000
 0358,-0.00073974,-0.00000923,-0.00001036,-0.06626977,-0.00000144,0.000
 00228,-0.03226856,-0.00000043,-0.00000756,0.13703726,0.00061728,-0.000
 00249,-0.00256082,-0.06019308,0.00001668,0.03278277,-0.01675163,-0.000
 00350,-0.00713738,-0.07494325,-0.00000066,-0.22710456,-0.02299297,-0.0
 0000087,-0.05774822,0.00647095,0.00002827,0.56614834,0.00089177,-0.000
 00210,0.00120657,-0.05087853,-0.00001182,-0.04430764,-0.00209928,0.000
 00272,-0.00099873,0.02160431,-0.00000098,0.03062312,-0.01156241,0.0000
 0479,0.02830408,-0.16548975,-0.00001311,0.13642524,0.44627412,-0.00001
 871,0.00515444,-0.00001290,0.00001434,0.01645227,-0.00000662,-0.000006
 92,0.00570679,0.00001762,0.00001938,0.02013119,0.00000126,-0.00000344,
 -0.00654116,0.00000049,0.00000849,-0.06687033,-0.00004137,0.00001096,0
 .09432226,0.00256199,0.00000017,-0.00449708,-0.01856636,-0.00001702,-0
 .06441834,-0.00568499,0.00000389,-0.00271721,-0.02922321,0.,-0.0749813
 2,-0.00567838,0.00000347,0.00465602,0.09020031,-0.00002650,-0.26735122
 ,-0.05284151,0.00003388,0.49957016,-0.00007416,0.00000238,0.00053844,0
 .00983699,0.00000945,-0.01006225,0.00073390,-0.00000192,-0.00000788,0.
 00153217,0.00000126,-0.00337064,-0.00041806,-0.00000498,0.00158071,-0.
 00725291,0.00001005,-0.00543193,-0.01550963,-0.00000752,0.02562129,0.2
 9925261,0.00000063,-0.00130778,0.00000024,-0.00000040,-0.00600967,0.00
 000212,-0.00000020,0.00190794,0.00000029,0.00000013,0.00377656,-0.0000
 0013,-0.00000016,0.00191940,-0.00000030,-0.00000233,0.00391530,0.00000
 438,-0.00000234,-0.00946427,-0.00000488,0.00000179,0.01486599,-0.00074
 143,-0.00000135,0.00007216,0.02545198,-0.00000808,-0.00461843,0.001167
 12,0.00000124,0.00011204,-0.00236559,-0.00000083,-0.00598254,-0.000534
 65,0.00000346,0.00107306,-0.00695476,-0.00000826,0.00057111,-0.0138581
 4,0.00000647,0.01321191,-0.20931996,-0.00000143,0.25228597,0.00590431,
 -0.00000172,-0.03236624,-0.11230152,0.00000784,-0.00895324,-0.00643019
 ,-0.00000199,-0.00204654,-0.02592045,-0.00000140,0.01962051,0.00096567
 ,0.00000114,0.00666671,-0.10743067,0.00001238,0.03679936,-0.22323059,-
 0.00001657,-0.00638913,-0.28810090,0.00000287,0.20715542,0.75654434,0.
 00000022,-0.00233293,0.00000038,0.00000182,-0.05429898,-0.00000896,0.0
 0000257,0.00536667,-0.00000648,-0.00000678,0.01019512,0.00000240,-0.00
 000060,0.00671547,0.00000014,0.00000395,0.01021277,-0.00000046,0.00001
 188,-0.05889119,0.00000700,-0.00001051,-0.00960348,0.00000877,-0.00000
 254,0.09263655,0.00779899,0.00000065,-0.00899155,-0.01048484,0.0000012
 3,-0.30854008,0.00226912,-0.00000089,0.00106655,0.07013138,-0.00000262
 ,-0.05679845,0.00273660,0.00000364,-0.00480525,0.03213637,-0.00000011,
 -0.03760004,-0.08455298,0.00000118,-0.10347290,0.20045222,-0.00000028,
 -0.25672526,-0.22048685,-0.00000280,0.77586700\\0.00009549,0.,0.000101
 44,0.00004887,0.,-0.00077704,-0.00003760,0.,0.00013371,-0.00033568,0.,
 0.00005921,-0.00016609,0.,-0.00000188,0.00026042,0.,-0.00007787,-0.000
 04098,0.,0.00017323,0.00004505,0.,-0.00010867,0.00013052,0.,0.00049787
 \\\@

 THE HURRIEDER I GO, THE BEHINDER I GET.
 Job cpu time:  0 days  0 hours  2 minutes 45.2 seconds.
 File lengths (MBytes):  RWF=   12 Int=    0 D2E=    0 Chk=    8 Scr=    1
 Normal termination of Gaussian 98.
