 Gaussian 98, Revision A.6,
 Gaussian 98:  IBM-RS6000-G98RevA.6 19-Oct-1998

 -------------------------
 #B3LYP/CEP-121G* opt freq
 -------------------------

 -------------------------------
 1H pyrazole C3H4N2 casno=288131
 -------------------------------
 Symbolic Z-matrix:
 Charge =  0 Multiplicity = 1

 SCF Done:  E(RB+HF-LYP) =  -39.0605426717     A.U. after   16 cycles
 SCF Done:  E(RB+HF-LYP) =  -39.1241731969     A.U. after   13 cycles
 SCF Done:  E(RB+HF-LYP) =  -39.1399906495     A.U. after   14 cycles
 SCF Done:  E(RB+HF-LYP) =  -39.1402454099     A.U. after   11 cycles
 SCF Done:  E(RB+HF-LYP) =  -39.1403397602     A.U. after   10 cycles
 SCF Done:  E(RB+HF-LYP) =  -39.1403470852     A.U. after    9 cycles
 SCF Done:  E(RB+HF-LYP) =  -39.1403481162     A.U. after    8 cycles
 Optimization completed.
    -- Stationary point found.
 Normal termination of Gaussian 98.

 -----------------------------------------------------
 #N Geom=AllCheck Guess=TCheck RB3LYP/CEP-121G(d) Freq
 -----------------------------------------------------

 1H pyrazole C3H4N2 casno=288131
 -------------------------------
 Redundant internal coordinates taken from checkpointfile:
 /wrk/rdj3/Gau-18056.chk
 Charge =  0 Multiplicity = 1

                         Standard orientation:
 ---------------------------------------------------------------------
 Center     Atomic     Atomic              Coordinates (Angstroms)
 Number     Number      Type              X           Y           Z
 ---------------------------------------------------------------------
    1          1             0        2.115050    0.708774    0.000000
    2          6             0        1.114915    0.291250    0.000000
    3          1             0        1.250919   -1.924811    0.000000
    4          6             0        0.654274   -1.021003    0.000000
    5          1             0       -1.511507   -1.689205    0.000000
    6          6             0       -0.765828   -0.900952    0.000000
    7          7             0       -1.165083    0.379172    0.000000
    8          1             0       -0.042488    2.098099    0.000000
    9          7             0        0.000000    1.086821    0.000000
 ---------------------------------------------------------------------

 SCF Done:  E(RB+HF-LYP) =  -39.1403481162     A.U. after    1 cycles

  The electronic state is 1-A'.
 Alpha  occ. eigenvalues --   -1.04519  -0.82307  -0.78423  -0.61729  -0.59775
 Alpha  occ. eigenvalues --   -0.54862  -0.44826  -0.43504  -0.43323  -0.40395
 Alpha  occ. eigenvalues --   -0.29546  -0.26161  -0.25095
 Alpha virt. eigenvalues --    0.00886   0.03142   0.05915   0.07153   0.08266
 Alpha virt. eigenvalues --    0.09924   0.16756   0.17972   0.19295   0.20096
 Alpha virt. eigenvalues --    0.30022   0.30365   0.32774   0.34668   0.35474

  Exact polarizability:  51.110   1.963  51.814  -0.019   0.000  24.854
 Approx polarizability:  82.486   1.267  84.142   0.000   0.000  36.476

                     1                      2                      3
                    A"                     A"                     A"
 Frequencies --   469.8397               623.7070               675.0524
 Red. masses --     1.6790                 2.6746                 3.0147
 Frc consts  --     0.2184                 0.6130                 0.8094
 IR Inten    --    57.5277                 0.0093                19.9965
 Raman Activ --     0.0000                 0.0000                 0.0000

                     4                      5                      6
                    A"                     A"                     A"
 Frequencies --   746.5028               830.2833               879.2403
 Red. masses --     1.2073                 1.2060                 1.2946
 Frc consts  --     0.3964                 0.4898                 0.5896
 IR Inten    --   104.4273                12.8207                 7.4793
 Raman Activ --     0.0000                 0.0000                 0.0000

                     7                      8                      9
                    A'                     A'                     A'
 Frequencies --   907.5146               920.6215              1033.9505
 Red. masses --     5.3222                 4.3330                 1.7458
 Frc consts  --     2.5826                 2.1637                 1.0996
 IR Inten    --    11.7002                 3.7394                40.6281
 Raman Activ --     0.0000                 0.0000                 0.0000

                    10                     11                     12
                    A'                     A'                     A'
 Frequencies --  1040.5714              1126.0814              1159.3070
 Red. masses --     1.4512                 1.9580                 2.8117
 Frc consts  --     0.9258                 1.4628                 2.2265
 IR Inten    --     6.4444                21.0222                 0.3797
 Raman Activ --     0.0000                 0.0000                 0.0000

                    13                     14                     15
                    A'                     A'                     A'
 Frequencies --  1262.1799              1367.4065              1405.8349
 Red. masses --     1.8146                 2.4657                 3.4197
 Frc consts  --     1.7032                 2.7163                 3.9820
 IR Inten    --     1.8749                 4.6993                13.6247
 Raman Activ --     0.0000                 0.0000                 0.0000

                    16                     17                     18
                    A'                     A'                     A'
 Frequencies --  1463.1464              1549.5101              3222.9883
 Red. masses --     2.5528                 2.7404                 1.0930
 Frc consts  --     3.2199                 3.8766                 6.6893
 IR Inten    --     7.9458                 5.8562                 6.7079
 Raman Activ --     0.0000                 0.0000                 0.0000

                    19                     20                     21
                    A'                     A'                     A'
 Frequencies --  3235.0223              3253.0649              3646.8976
 Red. masses --     1.0938                 1.1061                 1.0819
 Frc consts  --     6.7442                 6.8962                 8.4780
 IR Inten    --     6.2364                 3.4671                59.6980
 Raman Activ --     0.0000                 0.0000                 0.0000

 - Thermochemistry -
 -------------------
 Temperature   298.150 Kelvin.  Pressure   1.00000 Atm.
 Atom  1 has atomic number  1 and mass   1.00783

 Molecular mass:    68.03745 amu.
 Principal axes and moments of inertia in atomic units:
                           1         2         3
     EIGENVALUES --   189.98805 194.88105 384.86910
           X            0.93542   0.35353   0.00000
           Y           -0.35353   0.93542   0.00000
           Z            0.00000   0.00000   1.00000
 THIS MOLECULE IS AN ASYMMETRIC TOP.
 ROTATIONAL SYMMETRY NUMBER  1.
 ROTATIONAL TEMPERATURES (KELVIN)      0.45589     0.44444     0.22505
 ROTATIONAL CONSTANTS (GHZ)            9.49923     9.26073     4.68923
 Zero-point vibrational energy     184336.9 (Joules/Mol)
                                   44.05758 (Kcal/Mol)
 WARNING-- EXPLICIT CONSIDERATION OF   1 DEGREES OF FREEDOM AS
           VIBRATIONS MAY CAUSE SIGNIFICANT ERROR
 VIBRATIONAL TEMPERATURES:    675.99   897.37   971.24  1074.04  1194.59
          (KELVIN)           1265.02  1305.70  1324.56  1487.62  1497.14
                             1620.17  1667.97  1815.98  1967.38  2022.67
                             2105.13  2229.39  4637.13  4654.45  4680.41
                             5247.04

 Zero-point correction=                           0.070210 (Hartree/Particle)
 Thermal correction to Energy=                    0.074031
 Thermal correction to Enthalpy=                  0.074976
 Thermal correction to Gibbs Free Energy=         0.043883
 Sum of electronic and zero-point Energies=            -39.070138
 Sum of electronic and thermal Energies=               -39.066317
 Sum of electronic and thermal Enthalpies=             -39.065373
 Sum of electronic and thermal Free Energies=          -39.096465

                     E (Thermal)             CV                S
                      KCAL/MOL        CAL/MOL-KELVIN    CAL/MOL-KELVIN
 TOTAL                   46.455             13.680             65.441
 ELECTRONIC               0.000              0.000              0.000
 TRANSLATIONAL            0.889              2.981             38.570
 ROTATIONAL               0.889              2.981             24.170
 VIBRATIONAL             44.678              7.719              2.700
 VIBRATION  1             0.827              1.317              0.738
                       Q            LOG10(Q)             LN(Q)
 TOTAL BOT       0.653902D-20        -20.184487        -46.476499
 TOTAL V=0       0.128752D+13         12.109756         27.883743
 VIB (BOT)       0.693708D-32        -32.158823        -74.048427
 VIB (BOT)  1    0.359055D+00         -0.444840         -1.024281
 VIB (V=0)       0.136590D+01          0.135419          0.311815
 VIB (V=0)  1    0.111556D+01          0.047495          0.109361
 ELECTRONIC      0.100000D+01          0.000000          0.000000
 TRANSLATIONAL   0.220588D+08          7.343582         16.909224
 ROTATIONAL      0.427321D+05          4.630754         10.662705
 ***** Axes restored to original set *****
 -------------------------------------------------------------------
 Center     Atomic                   Forces (Hartrees/Bohr)
 Number     Number              X              Y              Z
 -------------------------------------------------------------------
    1          1           0.000000587    0.000000000   -0.000043878
    2          6          -0.000084481    0.000000000    0.000342032
    3          1           0.000002679    0.000000000   -0.000017909
    4          6           0.000127482    0.000000000   -0.000090426
    5          1           0.000035967    0.000000000   -0.000002058
    6          6          -0.000033065    0.000000000    0.000032043
    7          7          -0.000106322    0.000000000   -0.000048862
    8          1          -0.000016335    0.000000000    0.000020986
    9          7           0.000073489    0.000000000   -0.000191928
 -------------------------------------------------------------------
 Cartesian Forces:  Max     0.000342032 RMS     0.000088372

 GradGradGradGradGradGradGradGradGradGradGradGradGradGradGradGradGradGrad
 Berny optimization.
 Internal  Forces:  Max     0.000195761 RMS     0.000045393
 Search for a local minimum.
 Step number   1 out of a maximum of  48
 All quantities printed in internal units (Hartrees-Bohrs-Radians)
 Second derivative matrix not updated -- analytic derivatives used.
     Eigenvalues ---    0.00591   0.01120   0.01567   0.02734   0.05620
     Eigenvalues ---    0.05991   0.09210   0.10216   0.10913   0.11739
     Eigenvalues ---    0.21691   0.25350   0.33015   0.36060   0.36811
     Eigenvalues ---    0.36994   0.38557   0.40883   0.46781   0.47672
     Eigenvalues ---    0.542191000.000001000.000001000.000001000.00000
     Eigenvalues --- 1000.000001000.000001000.000001000.000001000.00000
     Eigenvalues --- 1000.000001000.000001000.000001000.000001000.00000
     Eigenvalues --- 1000.000001000.000001000.00000
 Angle between quadratic step and forces=  30.09 degrees.
 Linear search not attempted -- first point.
 Iteration  1 RMS(Cart)=  0.00011703 RMS(Int)=  0.00000002
 Iteration  2 RMS(Cart)=  0.00000003 RMS(Int)=  0.00000000
 Variable       Old X    -DE/DX   Delta X   Delta X   Delta X     New X
                                 (Linear)    (Quad)   (Total)
    R1        2.04806   0.00002   0.00000   0.00006   0.00006   2.04812
    R2        2.62815   0.00013   0.00000   0.00038   0.00038   2.62853
    R3        2.58828  -0.00020   0.00000  -0.00058  -0.00058   2.58770
    R4        2.04654   0.00002   0.00000   0.00004   0.00004   2.04658
    R5        2.69318  -0.00001   0.00000  -0.00002  -0.00002   2.69316
    R6        2.05049   0.00004   0.00000   0.00010   0.00010   2.05059
    R7        2.53401   0.00000   0.00000   0.00004   0.00004   2.53405
    R8        2.57599  -0.00008   0.00000  -0.00020  -0.00020   2.57579
    R9        1.91272   0.00003   0.00000   0.00006   0.00006   1.91278
    A1        2.30386  -0.00005   0.00000  -0.00052  -0.00052   2.30335
    A2        2.12634   0.00002   0.00000   0.00039   0.00039   2.12673
    A3        1.85298   0.00003   0.00000   0.00013   0.00013   1.85311
    A4        2.22052   0.00003   0.00000  -0.00002  -0.00002   2.22050
    A5        1.82405  -0.00006   0.00000  -0.00023  -0.00023   1.82383
    A6        2.23861   0.00004   0.00000   0.00025   0.00025   2.23886
    A7        2.24411   0.00001   0.00000  -0.00002  -0.00002   2.24409
    A8        1.95746  -0.00003   0.00000  -0.00003  -0.00003   1.95743
    A9        2.08162   0.00002   0.00000   0.00005   0.00005   2.08167
   A10        1.81430   0.00004   0.00000   0.00006   0.00006   1.81436
   A11        1.97599   0.00002   0.00000   0.00008   0.00008   1.97606
   A12        2.23256   0.00000   0.00000   0.00004   0.00004   2.23260
   A13        2.07464  -0.00002   0.00000  -0.00011  -0.00011   2.07452
    D1        0.00000   0.00000   0.00000   0.00000   0.00000   0.00000
    D2        3.14159   0.00000   0.00000   0.00000   0.00000   3.14159
    D3        3.14159   0.00000   0.00000   0.00000   0.00000   3.14159
    D4        0.00000   0.00000   0.00000   0.00000   0.00000   0.00000
    D5        3.14159   0.00000   0.00000   0.00000   0.00000   3.14159
    D6        0.00000   0.00000   0.00000   0.00000   0.00000   0.00000
    D7        0.00000   0.00000   0.00000   0.00000   0.00000   0.00000
    D8        3.14159   0.00000   0.00000   0.00000   0.00000   3.14159
    D9        3.14159   0.00000   0.00000   0.00000   0.00000   3.14159
   D10        0.00000   0.00000   0.00000   0.00000   0.00000   0.00000
   D11        0.00000   0.00000   0.00000   0.00000   0.00000   0.00000
   D12        3.14159   0.00000   0.00000   0.00000   0.00000   3.14159
   D13        0.00000   0.00000   0.00000   0.00000   0.00000   0.00000
   D14        3.14159   0.00000   0.00000   0.00000   0.00000   3.14159
   D15        0.00000   0.00000   0.00000   0.00000   0.00000   0.00000
   D16        3.14159   0.00000   0.00000   0.00000   0.00000   3.14159
         Item               Value     Threshold  Converged?
 Maximum Force            0.000196     0.000450     YES
 RMS     Force            0.000045     0.000300     YES
 Maximum Displacement     0.000481     0.001800     YES
 RMS     Displacement     0.000117     0.001200     YES
 Predicted change in Energy=-1.277889D-07
 Optimization completed.
    -- Stationary point found.
                         ----------------------------
                         !   Optimized Parameters   !
                         ! (Angstroms and Degrees)  !
 ------------------------                            -------------------------
 ! Name  Definition              Value          Derivative Info.             !
 -----------------------------------------------------------------------------
 ! R1    R(1,2)                  1.0838         -DE/DX =    0.               !
 ! R2    R(2,4)                  1.3908         -DE/DX =    0.0001           !
 ! R3    R(2,9)                  1.3697         -DE/DX =   -0.0002           !
 ! R4    R(3,4)                  1.083          -DE/DX =    0.               !
 ! R5    R(4,6)                  1.4252         -DE/DX =    0.               !
 ! R6    R(5,6)                  1.0851         -DE/DX =    0.               !
 ! R7    R(6,7)                  1.3409         -DE/DX =    0.               !
 ! R8    R(7,9)                  1.3632         -DE/DX =   -0.0001           !
 ! R9    R(8,9)                  1.0122         -DE/DX =    0.               !
 ! A1    A(1,2,4)              132.0017         -DE/DX =   -0.0001           !
 ! A2    A(1,2,9)              121.8304         -DE/DX =    0.               !
 ! A3    A(4,2,9)              106.1679         -DE/DX =    0.               !
 ! A4    A(2,4,3)              127.2267         -DE/DX =    0.               !
 ! A5    A(2,4,6)              104.5105         -DE/DX =   -0.0001           !
 ! A6    A(3,4,6)              128.2628         -DE/DX =    0.               !
 ! A7    A(4,6,5)              128.578          -DE/DX =    0.               !
 ! A8    A(4,6,7)              112.1542         -DE/DX =    0.               !
 ! A9    A(5,6,7)              119.2678         -DE/DX =    0.               !
 ! A10   A(6,7,9)              103.9516         -DE/DX =    0.               !
 ! A11   A(2,9,7)              113.2158         -DE/DX =    0.               !
 ! A12   A(2,9,8)              127.9164         -DE/DX =    0.               !
 ! A13   A(7,9,8)              118.8679         -DE/DX =    0.               !
 ! D1    D(1,2,4,3)              0.             -DE/DX =    0.               !
 ! D2    D(1,2,4,6)            180.             -DE/DX =    0.               !
 ! D3    D(9,2,4,3)            180.             -DE/DX =    0.               !
 ! D4    D(9,2,4,6)              0.             -DE/DX =    0.               !
 ! D5    D(1,2,9,7)            180.             -DE/DX =    0.               !
 ! D6    D(1,2,9,8)              0.             -DE/DX =    0.               !
 ! D7    D(4,2,9,7)              0.             -DE/DX =    0.               !
 ! D8    D(4,2,9,8)            180.             -DE/DX =    0.               !
 ! D9    D(2,4,6,5)            180.             -DE/DX =    0.               !
 ! D10   D(2,4,6,7)              0.             -DE/DX =    0.               !
 ! D11   D(3,4,6,5)              0.             -DE/DX =    0.               !
 ! D12   D(3,4,6,7)            180.             -DE/DX =    0.               !
 ! D13   D(4,6,7,9)              0.             -DE/DX =    0.               !
 ! D14   D(5,6,7,9)            180.             -DE/DX =    0.               !
 ! D15   D(6,7,9,2)              0.             -DE/DX =    0.               !
 ! D16   D(6,7,9,8)            180.             -DE/DX =    0.               !
 -----------------------------------------------------------------------------
 GradGradGradGradGradGradGradGradGradGradGradGradGradGradGradGradGradGrad

 1\1\GINC-INDIUM\Freq\RB3LYP\CEP-121G(d)\C3H4N2\RDJ3\18-Oct-2000\0\\#N
 GEOM=ALLCHECK GUESS=TCHECK RB3LYP/CEP-121G(D) FREQ\\1H pyrazole C3H4N2
  casno=288131\\0,1\H,-1.8915231734,0.,-1.1823435402\C,-0.9334964924,0.
 ,-0.6756085067\H,0.6908859293,0.,-2.1891486322\C,0.3723667969,0.,-1.15
 40646557\H,2.2648121346,0.,0.0932320864\C,1.182312016,0.,0.0185779265\
 N,0.447809662,0.,1.140463591\H,-1.5927536008,0.,1.3663677751\N,-0.8390
 397764,0.,0.6907910599\\Version=IBM-RS6000-G98RevA.6\State=1-A'\HF=-39
 .1403481\RMSD=2.990e-09\RMSF=8.837e-05\Dipole=-0.8104027,0.,-0.4216514
 \DipoleDeriv=-0.0315028,0.0002324,-0.062045,-0.0001161,0.1981092,-0.00
 01632,-0.0489378,0.0001002,0.063879,0.1569206,-0.0005689,-0.1381079,0.
 0000541,-0.1237235,0.0002619,-0.3067396,0.000675,0.2579678,0.0898621,0
 .000465,0.0374301,-0.0002547,0.1854278,-0.0003795,0.0444293,-0.0009096
 ,-0.0592367,-0.2458462,0.0001587,0.000521,0.0000913,-0.2271231,0.00053
 79,-0.0544308,0.0013647,-0.0113664,-0.0762622,-0.0003788,-0.00483,-0.0
 000575,0.1571403,-0.0002348,-0.0311634,0.0000747,0.0784237,0.2457822,0
 .0000836,0.1094507,-0.0000273,-0.1021619,0.0005514,0.201047,-0.0011162
 ,0.22499,0.0292002,-0.000237,-0.2027907,0.0000386,-0.2179798,-0.000569
 7,-0.0984294,0.0001283,-0.5961807,0.1817833,-0.0000931,-0.0318421,0.00
 00923,0.3203631,-0.0000596,-0.0180859,0.0000638,0.1995888,-0.3499374,0
 .0003381,0.2922137,0.0001792,-0.1900519,0.0000558,0.3123106,-0.000381,
 -0.1580653\Polar=53.4562749,0.0117453,24.8542511,0.0312531,0.0145746,4
 9.468081\PG=CS [SG(C3H4N2)]\NImag=0\\0.29760519,0.00000264,0.01975748,
 0.13237462,0.00000155,0.12060232,-0.29338215,-0.00000360,-0.11383275,0
 .82694321,-0.00000504,-0.02388127,-0.00000262,0.00000035,0.11027410,-0
 .12315957,0.00000068,-0.11817218,0.09862712,-0.00000135,0.61206592,0.0
 0021155,0.00000250,-0.00078789,0.00213956,-0.00000016,0.02517558,0.074
 69336,0.00000542,-0.00254052,0.00000229,-0.00000903,-0.00225926,0.0000
 1210,0.00000700,0.02130036,0.00045172,0.00000198,-0.00020886,-0.002842
 90,-0.00000611,0.00042932,-0.09161300,-0.00001392,0.34093601,-0.006056
 42,0.00000185,0.00861982,-0.32561305,-0.00000117,0.06753401,-0.0818597
 8,0.00000258,0.08549438,0.58822396,-0.00000904,0.00043863,-0.00000438,
 0.00000119,-0.05810932,-0.00000485,-0.00000051,-0.02487316,-0.00000670
 ,-0.00000299,0.10923934,-0.01475811,0.00000710,0.01273594,0.09330547,-
 0.00000613,-0.13720002,0.08300329,0.00002302,-0.32912844,-0.11935506,-
 0.00001393,0.80027385,-0.00025097,-0.00000137,0.00025902,-0.00072553,0
 .00000748,-0.00129071,-0.00018670,-0.00001039,-0.00045886,-0.00420986,
 0.00001409,0.00375779,0.36428755,0.00000292,0.00079141,0.00000115,-0.0
 0000014,0.00460046,0.00000449,0.00000235,-0.00172945,-0.00000459,-0.00
 000147,0.00055967,0.00000863,-0.00000614,0.02392176,-0.00110345,-0.000
 00099,0.00112630,-0.00288168,0.00000077,-0.00615354,0.00083438,0.00000
 149,0.00008752,-0.02089151,0.00000039,0.00718844,0.02030458,0.00000124
 ,0.05513468,-0.00452609,-0.00000497,0.00467223,-0.05397102,0.00000110,
 -0.00115289,0.01330091,0.00000689,0.01172271,-0.17224999,-0.00000220,-
 0.09633742,-0.34481843,0.00000388,-0.03212031,0.85394637,-0.00000920,0
 .00514708,-0.00000394,-0.00000314,0.00931602,-0.00000560,-0.00000004,-
 0.00316976,-0.00000211,0.00000188,-0.06106044,-0.00001281,0.00001445,-
 0.02954176,-0.00000119,-0.00000584,0.13232190,0.00107168,-0.00000463,-
 0.00230997,-0.06759799,0.00000763,0.03588365,-0.01458196,-0.00002451,-
 0.00840573,-0.06301200,0.00002081,-0.21723484,-0.02395985,-0.00001261,
 -0.06013181,-0.00851513,0.00002253,0.57493717,0.00051442,-0.00000475,0
 .00083366,-0.05362402,0.00000280,-0.04808015,-0.00218657,-0.00000333,-
 0.00112818,0.02761650,0.00000395,0.03786085,-0.01355371,-0.00000051,0.
 02804331,-0.17207786,-0.00000173,0.13209533,0.47100574,0.00000651,0.00
 618297,0.00000320,0.00000669,0.01523511,0.00000058,-0.00000410,0.00640
 835,0.00001670,0.00000185,0.01913740,0.00000182,-0.00001117,-0.0074044
 5,-0.00000103,0.00000293,-0.06834656,-0.00001748,-0.00000327,0.0984400
 4,0.00219368,-0.00000746,-0.00532141,-0.01680362,0.00000662,-0.0636890
 0,-0.00598168,0.00000740,-0.00404114,-0.03226201,0.00000294,-0.0742775
 9,-0.00085199,0.00000507,0.00640811,0.09886390,-0.00000451,-0.29019074
 ,-0.04590513,-0.00000081,0.53544179,-0.00027918,0.00000029,0.00046739,
 0.01041234,0.00000024,-0.00391620,0.00074930,-0.00000143,-0.00010517,0
 .00190287,0.00000037,-0.00327236,-0.00034627,-0.00000072,0.00158599,-0
 .00755975,0.00000204,-0.00576683,-0.01916089,0.00000104,0.02431618,0.2
 9015777,0.00000129,-0.00137030,0.00000035,-0.00000190,-0.00857269,0.00
 000506,0.00000062,0.00237383,-0.00000474,0.00000305,0.00278374,0.00000
 790,-0.00000125,0.00235274,0.00000058,-0.00000010,0.00372697,-0.000007
 16,0.00000071,-0.01248839,0.00000242,-0.00000089,0.01077696,-0.0006725
 5,-0.00000081,0.00002333,0.02416111,0.00000049,-0.00473959,0.00128280,
 0.00000071,0.00022447,-0.00249110,0.00000079,-0.00688564,-0.00053969,0
 .00000030,0.00103954,-0.00590957,-0.00000058,0.00047683,-0.00975980,-0
 .00000207,0.01642164,-0.20303768,0.00000091,0.24661196,0.00616365,0.00
 000742,-0.03260610,-0.11217933,-0.00000561,-0.01373720,-0.00686163,0.0
 0000227,-0.00152070,-0.02775423,-0.00000486,0.01579555,-0.00019607,-0.
 00000018,0.00622868,-0.11204414,0.00000157,0.05026676,-0.23853362,-0.0
 0000048,-0.02356934,-0.27587618,-0.00000153,0.19696647,0.76728155,0.00
 000450,-0.00452548,0.00000238,0.00000957,-0.04660316,-0.00001110,-0.00
 000768,0.00448963,0.00001951,-0.00000558,0.01188415,-0.00001560,-0.000
 00571,0.00644961,-0.00000125,-0.00000169,0.01160655,0.00001542,0.00000
 612,-0.05716448,-0.00001167,-0.00000093,0.00041713,0.00000027,0.000001
 39,0.07344605,0.00360197,0.00000259,-0.00847547,-0.01213477,0.00000070
 ,-0.31842455,0.00266847,-0.00000858,0.00010685,0.07636348,0.00000494,-
 0.05547170,0.00277970,-0.00000369,-0.00469923,0.02877648,0.00000823,-0
 .03302455,-0.09395989,-0.00000090,-0.12075167,0.18972868,-0.00000532,-
 0.25317254,-0.19782411,0.00000206,0.79391287\\-0.00000059,0.,0.0000438
 8,0.00008448,0.,-0.00034203,-0.00000268,0.,0.00001791,-0.00012748,0.,0
 .00009043,-0.00003597,0.,0.00000206,0.00003307,0.,-0.00003204,0.000106
 32,0.,0.00004886,0.00001634,0.,-0.00002099,-0.00007349,0.,0.00019193\\
 \@

 YOU CANNOT THROW TO THE GROUND THE LETTERS OF
 THE GREEK ALPHABET AND PICK UP THE ILIAD.
        - RUFUS CHOATE, 1799-1859
 Job cpu time:  0 days  0 hours 11 minutes 48.3 seconds.
 File lengths (MBytes):  RWF=   21 Int=    0 D2E=    0 Chk=    8 Scr=    1
 Normal termination of Gaussian 98.
