 Gaussian 98, Revision A.4,
 Gaussian 98:  x86-Linux-G98RevA.4 11-Sep-1998

 ---------------------
 #B3LYP/3-21G opt freq
 ---------------------

 -------------------------------
 1H pyrazole C3H4N2 casno=288131
 -------------------------------
 Symbolic Z-matrix:
 Charge =  0 Multiplicity = 1

 SCF Done:  E(RB+HF-LYP) =  -224.860243147     A.U. after   14 cycles
 SCF Done:  E(RB+HF-LYP) =  -224.924043891     A.U. after   14 cycles
 SCF Done:  E(RB+HF-LYP) =  -224.940440813     A.U. after   14 cycles
 SCF Done:  E(RB+HF-LYP) =  -224.941007285     A.U. after   12 cycles
 SCF Done:  E(RB+HF-LYP) =  -224.941283550     A.U. after   12 cycles
 SCF Done:  E(RB+HF-LYP) =  -224.941306403     A.U. after    9 cycles
 SCF Done:  E(RB+HF-LYP) =  -224.941312597     A.U. after    9 cycles
 Optimization completed.
    -- Stationary point found.
 Normal termination of Gaussian 98.

 -----------------------------------------------
 #N Geom=AllCheck Guess=TCheck RB3LYP/3-21G Freq
 -----------------------------------------------

 1H pyrazole C3H4N2 casno=288131
 -------------------------------
 Redundant internal coordinates taken from checkpointfile:
 /wrk/rdj3/Gau-30421.chk
 Charge =  0 Multiplicity = 1

                         Standard orientation:
 ---------------------------------------------------------------------
 Center     Atomic     Atomic              Coordinates (Angstroms)
 Number     Number      Type              X           Y           Z
 ---------------------------------------------------------------------
    1          1             0        2.117735    0.726152    0.000000
    2          6             0        1.121024    0.319585    0.000000
    3          1             0        1.286754   -1.879582    0.000000
    4          6             0        0.680255   -0.991687    0.000000
    5          1             0       -1.443981   -1.725838    0.000000
    6          6             0       -0.737206   -0.913498    0.000000
    7          7             0       -1.182970    0.358376    0.000000
    8          1             0       -0.064158    2.117251    0.000000
    9          7             0        0.000000    1.109569    0.000000
 ---------------------------------------------------------------------

 SCF Done:  E(RB+HF-LYP) =  -224.941312597     A.U. after    1 cycles

  The electronic state is 1-A'.
 Alpha  occ. eigenvalues --  -14.32551 -14.26697 -10.16621 -10.14116 -10.11873
 Alpha  occ. eigenvalues --   -1.03580  -0.82131  -0.77496  -0.61282  -0.58945
 Alpha  occ. eigenvalues --   -0.54712  -0.44714  -0.42756  -0.42522  -0.40499
 Alpha  occ. eigenvalues --   -0.27316  -0.25840  -0.24251
 Alpha virt. eigenvalues --    0.02112   0.08053   0.09958   0.14564   0.17532
 Alpha virt. eigenvalues --    0.19013   0.22053   0.24923   0.32734   0.43647
 Alpha virt. eigenvalues --    0.46165   0.68395   0.72480   0.73554   0.74779

  Exact polarizability:  42.894   2.208  45.275   0.000   0.000  12.167
 Approx polarizability:  74.581   0.744  76.935   0.000   0.000  15.107

                     1                      2                      3
                    A"                     A"                     A"
 Frequencies --   582.1160               654.4728               681.2169
 Red. masses --     2.0066                 1.9054                 2.5972
 Frc consts  --     0.4006                 0.4809                 0.7101
 IR Inten    --    88.6151                 4.5790                36.8583
 Raman Activ --     0.0000                 0.0000                 0.0000

                     4                      5                      6
                    A"                     A"                     A'
 Frequencies --   784.8980               883.1841               927.3443
 Red. masses --     1.2263                 1.2472                 5.4387
 Frc consts  --     0.4451                 0.5732                 2.7556
 IR Inten    --    83.8179                12.7243                23.3578
 Raman Activ --     0.0000                 0.0000                 0.0000

                     7                      8                      9
                    A"                     A'                     A'
 Frequencies --   945.0884               954.0026               982.3121
 Red. masses --     1.4093                 5.2544                 3.0726
 Frc consts  --     0.7417                 2.8176                 1.7469
 IR Inten    --     0.5750                 4.3530                 9.4782
 Raman Activ --     0.0000                 0.0000                 0.0000

                    10                     11                     12
                    A'                     A'                     A'
 Frequencies --  1068.1898              1124.4289              1151.4411
 Red. masses --     1.6121                 2.2334                 1.7143
 Frc consts  --     1.0838                 1.6637                 1.3392
 IR Inten    --     5.5316                18.5323                 5.9033
 Raman Activ --     0.0000                 0.0000                 0.0000

                    13                     14                     15
                    A'                     A'                     A'
 Frequencies --  1247.1486              1357.4229              1396.8299
 Red. masses --     2.8332                 1.9776                 1.8933
 Frc consts  --     2.5964                 2.1469                 2.1765
 IR Inten    --     2.0969                 3.8861                 7.8549
 Raman Activ --     0.0000                 0.0000                 0.0000

                    16                     17                     18
                    A'                     A'                     A'
 Frequencies --  1439.4547              1540.2960              3282.1911
 Red. masses --     2.3112                 2.6048                 1.0923
 Frc consts  --     2.8215                 3.6411                 6.9331
 IR Inten    --    10.6181                14.0354                 3.4981
 Raman Activ --     0.0000                 0.0000                 0.0000

                    19                     20                     21
                    A'                     A'                     A'
 Frequencies --  3288.5444              3314.1476              3621.3182
 Red. masses --     1.0942                 1.1053                 1.0826
 Frc consts  --     6.9716                 7.1530                 8.3648
 IR Inten    --     1.3615                 0.3283                83.7053
 Raman Activ --     0.0000                 0.0000                 0.0000

 - Thermochemistry -
 -------------------
 Temperature   298.150 Kelvin.  Pressure   1.00000 Atm.
 Atom  1 has atomic number  1 and mass   1.00783

 Molecular mass:    68.03745 amu.
 Principal axes and moments of inertia in atomic units:
                           1         2         3
     EIGENVALUES --   191.64658 196.43896 388.08554
           X            0.99422   0.10739   0.00000
           Y           -0.10739   0.99422   0.00000
           Z            0.00000   0.00000   1.00000
 THIS MOLECULE IS AN ASYMMETRIC TOP.
 ROTATIONAL SYMMETRY NUMBER  1.
 ROTATIONAL TEMPERATURES (KELVIN)      0.45194     0.44092     0.22318
 ROTATIONAL CONSTANTS (GHZ)            9.41703     9.18729     4.65037
 Zero-point vibrational energy     186773.3 (Joules/Mol)
                                   44.63988 (Kcal/Mol)
 WARNING-- EXPLICIT CONSIDERATION OF   1 DEGREES OF FREEDOM AS
           VIBRATIONS MAY CAUSE SIGNIFICANT ERROR
 VIBRATIONAL TEMPERATURES:    837.53   941.64   980.11  1129.29  1270.70
          (KELVIN)           1334.23  1359.76  1372.59  1413.32  1536.88
                             1617.79  1656.66  1794.36  1953.02  2009.72
                             2071.04  2216.13  4722.31  4731.45  4768.29
                             5210.24

 Zero-point correction=                           0.071138 (Hartree/Particle)
 Thermal correction to Energy=                    0.074824
 Thermal correction to Enthalpy=                  0.075768
 Thermal correction to Gibbs Free Energy=         0.044865
 Sum of electronic and zero-point Energies=           -224.870174
 Sum of electronic and thermal Energies=              -224.866489
 Sum of electronic and thermal Enthalpies=            -224.865545
 Sum of electronic and thermal Free Energies=         -224.896448

                     E (Thermal)             CV                S
                      KCAL/MOL        CAL/MOL-KELVIN    CAL/MOL-KELVIN
 TOTAL                   46.953             13.118             65.041
 ELECTRONIC               0.000              0.000              0.000
 TRANSLATIONAL            0.889              2.981             38.570
 ROTATIONAL               0.889              2.981             24.195
 VIBRATIONAL             45.175              7.156              2.276
 VIBRATION  1             0.939              1.070              0.481
                       Q            LOG10(Q)             LN(Q)
 TOTAL BOT       0.231148D-20        -20.636110        -47.516399
 TOTAL V=0       0.121608D+13         12.084960         27.826650
 VIB (BOT)       0.242176D-32        -32.615870        -75.100815
 VIB (BOT)  1    0.261220D+00         -0.582994         -1.342393
 VIB (V=0)       0.127409D+01          0.105201          0.242233
 VIB (V=0)  1    0.106412D+01          0.026992          0.062152
 ELECTRONIC      0.100000D+01          0.000000          0.000000
 TRANSLATIONAL   0.220588D+08          7.343582         16.909224
 ROTATIONAL      0.432691D+05          4.636177         10.675193
 ***** Axes restored to original set *****
 -------------------------------------------------------------------
 Center     Atomic                   Forces (Hartrees/Bohr)
 Number     Number              X              Y              Z
 -------------------------------------------------------------------
    1          1           0.000049725    0.000000000   -0.000088212
    2          6          -0.000077858    0.000000000    0.000832330
    3          1          -0.000038301    0.000000000   -0.000050538
    4          6           0.000416924    0.000000000   -0.000386162
    5          1           0.000012783    0.000000000   -0.000028004
    6          6          -0.000330361    0.000000000    0.000008180
    7          7          -0.000187667    0.000000000    0.000111120
    8          1          -0.000015841    0.000000000    0.000057650
    9          7           0.000170596    0.000000000   -0.000456365
 -------------------------------------------------------------------
 Cartesian Forces:  Max     0.000832330 RMS     0.000230517

 GradGradGradGradGradGradGradGradGradGradGradGradGradGradGradGradGradGrad
 Berny optimization.
 Internal  Forces:  Max     0.000400989 RMS     0.000117374
 Search for a local minimum.
 Step number   1 out of a maximum of  48
 All quantities printed in internal units (Hartrees-Bohrs-Radians)
 Second derivative matrix not updated -- analytic derivatives used.
     Eigenvalues ---    0.00876   0.01337   0.01767   0.02902   0.06047
     Eigenvalues ---    0.06514   0.09807   0.10821   0.10990   0.11821
     Eigenvalues ---    0.20324   0.24888   0.30596   0.35135   0.37916
     Eigenvalues ---    0.38220   0.38668   0.41322   0.46541   0.47518
     Eigenvalues ---    0.543451000.000001000.000001000.000001000.00000
     Eigenvalues --- 1000.000001000.000001000.000001000.000001000.00000
     Eigenvalues --- 1000.000001000.000001000.000001000.000001000.00000
     Eigenvalues --- 1000.000001000.000001000.00000
 Angle between quadratic step and forces=  26.98 degrees.
 Linear search not attempted -- first point.
 Iteration  1 RMS(Cart)=  0.00040594 RMS(Int)=  0.00000020
 Iteration  2 RMS(Cart)=  0.00000023 RMS(Int)=  0.00000004
 Variable       Old X    -DE/DX   Delta X   Delta X   Delta X     New X
                                 (Linear)    (Quad)   (Total)
    R1        2.03418   0.00000   0.00000   0.00004   0.00004   2.03422
    R2        2.61419   0.00021   0.00000   0.00084   0.00084   2.61503
    R3        2.59159  -0.00040   0.00000  -0.00148  -0.00148   2.59011
    R4        2.03196   0.00004   0.00000   0.00003   0.00003   2.03199
    R5        2.68269  -0.00009   0.00000  -0.00021  -0.00021   2.68248
    R6        2.03479   0.00001   0.00000   0.00006   0.00006   2.03486
    R7        2.54684   0.00007   0.00000   0.00022   0.00022   2.54705
    R8        2.64812  -0.00022   0.00000  -0.00033  -0.00033   2.64779
    R9        1.90810   0.00005   0.00000   0.00011   0.00011   1.90821
    A1        2.28237  -0.00019   0.00000  -0.00152  -0.00152   2.28086
    A2        2.14042   0.00001   0.00000   0.00086   0.00086   2.14128
    A3        1.86040   0.00018   0.00000   0.00065   0.00065   1.86105
    A4        2.21804   0.00010   0.00000  -0.00013  -0.00013   2.21791
    A5        1.83996  -0.00030   0.00000  -0.00104  -0.00104   1.83892
    A6        2.22518   0.00021   0.00000   0.00117   0.00117   2.22635
    A7        2.23171  -0.00010   0.00000  -0.00043  -0.00043   2.23128
    A8        1.96300   0.00013   0.00000   0.00053   0.00053   1.96353
    A9        2.08847  -0.00003   0.00000  -0.00010  -0.00010   2.08837
   A10        1.79946  -0.00007   0.00000  -0.00034  -0.00034   1.79912
   A11        1.96196   0.00006   0.00000   0.00020   0.00020   1.96216
   A12        2.24825   0.00000   0.00000   0.00014   0.00014   2.24839
   A13        2.07298  -0.00006   0.00000  -0.00034  -0.00034   2.07263
    D1        0.00000   0.00000   0.00000   0.00000   0.00000   0.00000
    D2        3.14159   0.00000   0.00000   0.00000   0.00000   3.14159
    D3        3.14159   0.00000   0.00000   0.00000   0.00000   3.14159
    D4        0.00000   0.00000   0.00000   0.00000   0.00000   0.00000
    D5        3.14159   0.00000   0.00000   0.00000   0.00000   3.14159
    D6        0.00000   0.00000   0.00000   0.00000   0.00000   0.00000
    D7        0.00000   0.00000   0.00000   0.00000   0.00000   0.00000
    D8        3.14159   0.00000   0.00000   0.00000   0.00000   3.14159
    D9        3.14159   0.00000   0.00000   0.00000   0.00000   3.14159
   D10        0.00000   0.00000   0.00000   0.00000   0.00000   0.00000
   D11        0.00000   0.00000   0.00000   0.00000   0.00000   0.00000
   D12        3.14159   0.00000   0.00000   0.00000   0.00000   3.14159
   D13        0.00000   0.00000   0.00000   0.00000   0.00000   0.00000
   D14        3.14159   0.00000   0.00000   0.00000   0.00000   3.14159
   D15        0.00000   0.00000   0.00000   0.00000   0.00000   0.00000
   D16        3.14159   0.00000   0.00000   0.00000   0.00000   3.14159
         Item               Value     Threshold  Converged?
 Maximum Force            0.000401     0.000450     YES
 RMS     Force            0.000117     0.000300     YES
 Maximum Displacement     0.001307     0.001800     YES
 RMS     Displacement     0.000406     0.001200     YES
 Predicted change in Energy=-1.011050D-06
 Optimization completed.
    -- Stationary point found.
                         ----------------------------
                         !   Optimized Parameters   !
                         ! (Angstroms and Degrees)  !
 ------------------------                            -------------------------
 ! Name  Definition              Value          Derivative Info.             !
 -----------------------------------------------------------------------------
 ! R1    R(1,2)                  1.0764         -DE/DX =    0.               !
 ! R2    R(2,4)                  1.3834         -DE/DX =    0.0002           !
 ! R3    R(2,9)                  1.3714         -DE/DX =   -0.0004           !
 ! R4    R(3,4)                  1.0753         -DE/DX =    0.               !
 ! R5    R(4,6)                  1.4196         -DE/DX =   -0.0001           !
 ! R6    R(5,6)                  1.0768         -DE/DX =    0.               !
 ! R7    R(6,7)                  1.3477         -DE/DX =    0.0001           !
 ! R8    R(7,9)                  1.4013         -DE/DX =   -0.0002           !
 ! R9    R(8,9)                  1.0097         -DE/DX =    0.0001           !
 ! A1    A(1,2,4)              130.7704         -DE/DX =   -0.0002           !
 ! A2    A(1,2,9)              122.6367         -DE/DX =    0.               !
 ! A3    A(4,2,9)              106.5928         -DE/DX =    0.0002           !
 ! A4    A(2,4,3)              127.0845         -DE/DX =    0.0001           !
 ! A5    A(2,4,6)              105.4222         -DE/DX =   -0.0003           !
 ! A6    A(3,4,6)              127.4933         -DE/DX =    0.0002           !
 ! A7    A(4,6,5)              127.8676         -DE/DX =   -0.0001           !
 ! A8    A(4,6,7)              112.4717         -DE/DX =    0.0001           !
 ! A9    A(5,6,7)              119.6607         -DE/DX =    0.               !
 ! A10   A(6,7,9)              103.1014         -DE/DX =   -0.0001           !
 ! A11   A(2,9,7)              112.4119         -DE/DX =    0.0001           !
 ! A12   A(2,9,8)              128.8154         -DE/DX =    0.               !
 ! A13   A(7,9,8)              118.7727         -DE/DX =   -0.0001           !
 ! D1    D(1,2,4,3)              0.             -DE/DX =    0.               !
 ! D2    D(1,2,4,6)            180.             -DE/DX =    0.               !
 ! D3    D(9,2,4,3)            180.             -DE/DX =    0.               !
 ! D4    D(9,2,4,6)              0.             -DE/DX =    0.               !
 ! D5    D(1,2,9,7)            180.             -DE/DX =    0.               !
 ! D6    D(1,2,9,8)              0.             -DE/DX =    0.               !
 ! D7    D(4,2,9,7)              0.             -DE/DX =    0.               !
 ! D8    D(4,2,9,8)            180.             -DE/DX =    0.               !
 ! D9    D(2,4,6,5)            180.             -DE/DX =    0.               !
 ! D10   D(2,4,6,7)              0.             -DE/DX =    0.               !
 ! D11   D(3,4,6,5)              0.             -DE/DX =    0.               !
 ! D12   D(3,4,6,7)            180.             -DE/DX =    0.               !
 ! D13   D(4,6,7,9)              0.             -DE/DX =    0.               !
 ! D14   D(5,6,7,9)            180.             -DE/DX =    0.               !
 ! D15   D(6,7,9,2)              0.             -DE/DX =    0.               !
 ! D16   D(6,7,9,8)            180.             -DE/DX =    0.               !
 -----------------------------------------------------------------------------
 GradGradGradGradGradGradGradGradGradGradGradGradGradGradGradGradGradGrad

 1\1\GINC-QCHEM8\Freq\RB3LYP\3-21G\C3H4N2\RDJ3\11-Oct-1999\0\\#N GEOM=A
 LLCHECK GUESS=TCHECK RB3LYP/3-21G FREQ\\1H pyrazole C3H4N2 casno=28813
 1\\0,1\H,-1.8846041551,0.,-1.2084556348\C,-0.9468333753,0.,-0.67995349
 56\H,0.6735764167,0.,-2.175973413\C,0.3545468166,0.,-1.1491241309\H,2.
 249458712,0.,0.0594565815\C,1.1738176428,0.,0.0102316862\N,0.454034807
 5,0.,1.149653675\H,-1.6193141251,0.,1.3655366383\N,-0.869506715,0.,0.6
 892765349\\Version=x86-Linux-G98RevA.4\State=1-A'\HF=-224.9413126\RMSD
 =4.031e-09\RMSF=2.305e-04\Dipole=-0.8088932,0.,-0.4343105\DipoleDeriv=
 0.0079818,0.0000389,-0.0438203,0.0000806,0.1950729,0.000009,-0.0435857
 ,0.0000169,0.0720459,0.113542,-0.0001474,-0.0994856,-0.0001751,-0.0626
 865,0.0000599,-0.3040873,0.0000688,0.2054267,0.096417,0.0000456,0.0292
 333,0.0000157,0.1697273,0.0000004,0.0340892,-0.000126,-0.0264273,-0.28
 21024,0.0000429,0.0002912,-0.0000319,-0.2290872,0.0000431,-0.0491163,0
 .00002,-0.0147299,-0.0406523,-0.0000465,-0.0224214,0.0000349,0.1558352
 ,0.000007,-0.0094351,0.0000049,0.0887225,0.2007567,0.0001373,0.1363261
 ,0.0000199,-0.0867991,-0.0000876,0.1719774,-0.0000204,0.0701008,0.0766
 737,-0.0000575,-0.165385,-0.0000386,-0.1903204,0.0000847,-0.0306343,0.
 0000366,-0.430048,0.2231888,0.0000654,-0.0305949,-0.0000005,0.3645206,
 0.0000038,-0.0446294,-0.0000692,0.2310029,-0.3958045,-0.0000787,0.1958
 566,0.000095,-0.3162629,-0.0001202,0.2754214,0.0000683,-0.1960929\Pola
 r=46.5056965,-0.0001081,12.1667033,-0.6554474,-0.000507,41.6628076\PG=
 CS [SG(C3H4N2)]\NImag=0\\0.30086631,-0.00000329,0.02186483,0.14070481,
 -0.00000236,0.13147836,-0.29607867,0.00000344,-0.12500663,0.84706650,0
 .00000859,-0.02896616,0.00000570,-0.00000991,0.13155915,-0.13332110,0.
 00000092,-0.12680292,0.11291520,-0.00000191,0.60245960,0.00027387,-0.0
 0000101,-0.00098611,0.00093122,0.00000274,0.02895609,0.08210104,-0.000
 00068,-0.00320597,-0.00000049,-0.00000298,-0.00020211,0.00000309,0.000
 00096,0.02437629,0.00063306,0.00000291,-0.00002513,-0.00494330,-0.0000
 0763,-0.00088127,-0.09494034,-0.00000265,0.35359703,-0.00772052,0.0000
 0374,0.01108523,-0.32342182,-0.00000817,0.06708196,-0.08776084,0.00000
 262,0.08885902,0.59980565,0.00000279,0.00262278,0.00000180,-0.00000361
 ,-0.07286022,-0.00000134,0.00000089,-0.03095553,-0.00000239,-0.0000020
 2,0.13326169,-0.01676595,-0.00000137,0.01269889,0.08917461,0.00000265,
 -0.13830016,0.08569670,-0.00000049,-0.34016650,-0.12975523,0.00000090,
 0.82104847,-0.00034062,0.00000263,0.00020120,-0.00008724,-0.00000662,-
 0.00050822,-0.00014963,0.00000070,-0.00073999,-0.00533798,-0.00000270,
 0.00508776,0.37867498,-0.00000175,0.00065763,-0.00000130,0.00000030,0.
 00438376,0.00000163,-0.00000005,-0.00205955,-0.00000019,0.00000219,0.0
 0171607,-0.00000099,0.00000136,0.02573008,-0.00096896,0.00000010,0.000
 95233,-0.00307133,-0.00000034,-0.00636368,0.00097937,0.00000033,0.0003
 1227,-0.02378168,-0.00000018,0.00668757,0.01444896,0.00000012,0.056532
 19,-0.00386716,-0.00000421,0.00490768,-0.07097441,0.00000959,-0.007888
 40,0.01280324,0.00000346,0.01414608,-0.16772419,0.00000237,-0.08440403
 ,-0.36043743,-0.00000121,-0.02499433,0.87245056,-0.00000269,0.00534229
 ,-0.00000168,0.00000755,0.01500520,-0.00000080,-0.00000194,-0.00150249
 ,0.00000549,0.00000014,-0.07401340,0.,0.00000261,-0.03321653,-0.000000
 01,-0.00000492,0.14763585,0.00075632,-0.00000333,-0.00258637,-0.069080
 21,0.00000989,0.03199685,-0.01800644,-0.00000332,-0.01086756,-0.056532
 78,0.00000426,-0.20692272,-0.01736593,-0.00000026,-0.05818314,-0.00151
 844,-0.00000515,0.54021400,0.00127536,-0.00000141,0.00119806,-0.054980
 34,0.00000342,-0.04994163,-0.00220589,-0.00000440,-0.00078910,0.020045
 40,0.00000219,0.03323357,-0.01306623,-0.00000103,0.02926262,-0.1548022
 6,0.00000025,0.12379136,0.39128795,0.00000315,0.00572923,0.00000211,-0
 .00000637,0.01617950,-0.00000048,0.00000155,0.00611428,-0.00000425,-0.
 00000156,0.02256542,0.00000016,-0.00000269,-0.00674189,-0.00000009,0.0
 0000419,-0.07215750,0.00000552,0.00000059,0.09888884,0.00314024,0.0000
 0089,-0.00426181,-0.01915673,-0.00000313,-0.06837431,-0.00556126,0.000
 00271,-0.00247864,-0.03099499,-0.00000208,-0.08389652,-0.00282698,-0.0
 0000016,0.00330945,0.07334802,0.00000203,-0.25552587,-0.05347583,-0.00
 000226,0.49633576,-0.00022947,0.00000109,0.00058635,0.00934479,-0.0000
 0214,-0.00710044,0.00058532,0.00000367,-0.00002607,0.00197422,-0.00000
 132,-0.00343536,-0.00027296,0.00000090,0.00136355,-0.00646689,-0.00000
 096,-0.00564591,-0.01676128,0.00000007,0.02512260,0.28411038,-0.000000
 49,-0.00152954,-0.00000039,0.00000062,-0.00634562,0.00000043,-0.000000
 16,0.00203683,0.00000026,0.00000010,0.00343564,-0.00000048,0.00000067,
 0.00187557,0.,-0.00000089,0.00427228,0.00000057,-0.00000005,-0.0102812
 5,-0.00000037,-0.00000003,0.01383932,-0.00071134,-0.00000028,-0.000156
 29,0.02648018,0.00000056,-0.00492121,0.00121479,-0.00000332,0.00012298
 ,-0.00266708,0.00000086,-0.00615037,-0.00044653,-0.00000063,0.00107267
 ,-0.00695907,0.00000117,0.00033606,-0.01216039,-0.00000033,0.01390872,
 -0.19956798,0.00000008,0.24632858,0.00582093,-0.00000099,-0.03269059,-
 0.11180006,0.00000249,-0.01019347,-0.00657831,-0.00000334,-0.00219937,
 -0.02985993,0.00000140,0.02116793,0.00101713,-0.00000071,0.00676179,-0
 .12098147,-0.00000003,0.04360203,-0.17079269,0.00000105,0.01040493,-0.
 27228409,0.00000023,0.19481741,0.70545847,-0.00000563,-0.00251509,-0.0
 0000339,0.00001096,-0.05875350,-0.00000154,-0.00000297,0.00539824,0.00
 000844,0.00000296,0.01422755,-0.00000036,0.00000404,0.00765486,0.00000
 005,-0.00000838,0.00863430,-0.00000818,0.00000043,-0.06029662,0.000002
 36,-0.00000130,-0.00730322,0.00000190,-0.00000010,0.09295348,0.0065329
 2,0.00000252,-0.01129706,-0.00731181,-0.00000578,-0.28881292,0.0026471
 8,0.00000413,0.00038684,0.07670556,-0.00000183,-0.06499869,0.00214974,
 0.00000177,-0.00431968,0.03336246,-0.00000105,-0.03846126,-0.07111865,
 -0.00000037,-0.09901678,0.18870324,-0.00000011,-0.25054115,-0.23167064
 ,0.00000072,0.75706069\\-0.00004972,0.,0.00008821,0.00007786,0.,-0.000
 83233,0.00003830,0.,0.00005054,-0.00041692,0.,0.00038616,-0.00001278,0
 .,0.00002800,0.00033036,0.,-0.00000818,0.00018767,0.,-0.00011112,0.000
 01584,0.,-0.00005765,-0.00017060,0.,0.00045636\\\@

 ... THE UNIVERSE IS NOT ONLY QUEERER THAN WE SUPPOSE,
 BUT QUEERER THAN WE CAN SUPPOSE ...

                                   -- J. B. S. HALDANE
 Job cpu time:  0 days  0 hours 11 minutes 53.5 seconds.
 File lengths (MBytes):  RWF=   10 Int=    0 D2E=    0 Chk=    3 Scr=    1
 Normal termination of Gaussian 98.
