 Gaussian 09, Revision A.02,
 Gaussian 09:  AM64L-G09RevA.02 11-Jun-2009

 --------------------
 #B3LYP/TZVP opt freq
 --------------------

 -------------------------------------------------
 1H pyrazole C3H4N2 casno=288131 method=8 basis=32
 -------------------------------------------------
 Symbolic Z-matrix:
 Charge =  0 Multiplicity = 1

 SCF Done:  E(RB3LYP) =  -226.215451553     A.U. after   14 cycles
 SCF Done:  E(RB3LYP) =  -226.268609445     A.U. after   13 cycles
 SCF Done:  E(RB3LYP) =  -226.278449506     A.U. after   13 cycles
 SCF Done:  E(RB3LYP) =  -226.278637286     A.U. after   10 cycles
 SCF Done:  E(RB3LYP) =  -226.278711536     A.U. after   10 cycles
 SCF Done:  E(RB3LYP) =  -226.278714352     A.U. after    8 cycles
 Optimization completed.
    -- Stationary point found.
 Normal termination of Gaussian 09 at Tue Feb  1 08:53:09 2011.

 ----------------------------------------------------------------
 #N Geom=AllCheck Guess=TCheck SCRF=Check GenChk RB3LYP/TZVP Freq
 ----------------------------------------------------------------

 1H pyrazole C3H4N2 casno=288131 method=8 basis=32
 -------------------------------------------------
 Redundant internal coordinates taken from checkpoint file:
 /gaussian/Gau-6740.chk
 Charge =  0 Multiplicity = 1

                         Standard orientation:
 ---------------------------------------------------------------------
 Center     Atomic      Atomic             Coordinates (Angstroms)
 Number     Number       Type             X           Y           Z
 ---------------------------------------------------------------------
      1          1           0        2.101953    0.726412    0.000000
      2          6           0        1.110209    0.306015    0.000000
      3          1           0        1.262661   -1.890030    0.000000
      4          6           0        0.663176   -0.995975    0.000000
      5          1           0       -1.477576   -1.680466    0.000000
      6          6           0       -0.743934   -0.890134    0.000000
      7          7           0       -1.144915    0.375919    0.000000
      8          1           0       -0.049345    2.090739    0.000000
      9          7           0        0.000000    1.086069    0.000000
 ---------------------------------------------------------------------

 SCF Done:  E(RB3LYP) =  -226.278714352     A.U. after    1 cycles

 The electronic state is 1-A'.
 Alpha  occ. eigenvalues --  -14.39450 -14.33454 -10.21414 -10.19116 -10.17067
 Alpha  occ. eigenvalues --   -1.05392  -0.82475  -0.78600  -0.61848  -0.60212
 Alpha  occ. eigenvalues --   -0.55266  -0.45339  -0.44511  -0.43549  -0.40743
 Alpha  occ. eigenvalues --   -0.29771  -0.26811  -0.25772
 Alpha virt. eigenvalues --    0.00472   0.02933   0.05406   0.07661   0.08849
 Alpha virt. eigenvalues --    0.10292   0.13192   0.15354   0.17391   0.18276
 Alpha virt. eigenvalues --    0.21005   0.25773   0.25929   0.26405   0.29923

 Mulliken atomic charges:
              1
     1  H    0.123176
     2  C   -0.176487
     3  H    0.135936
     4  C   -0.023414
     5  H    0.112706
     6  C   -0.220117
     7  N   -0.106361
     8  H    0.250289
     9  N   -0.095728
 Sum of Mulliken atomic charges =   0.00000

 Dipole moment (field-independent basis, Debye):
    X=              2.1897    Y=              0.8764    Z=              0.0000  Tot=              2.3585
 Quadrupole moment (field-independent basis, Debye-Ang):
   XX=            -30.2036   YY=            -22.3971   ZZ=            -32.2287
   XY=              2.6227   XZ=              0.0000   YZ=              0.0000

  Exact polarizability:  51.474   1.449  51.914   0.000   0.000  28.256
 Approx polarizability:  82.218   0.979  84.044   0.000   0.000  40.501

                     1                      2                      3
                    A"                     A"                     A"
 Frequencies --   520.0519               635.8409               689.9216
 Red. masses --     1.7465                 2.4684                 2.8564
 Frc consts  --     0.2783                 0.5880                 0.8011
 IR Inten    --    56.4276                 0.0071                22.3744

                     4                      5                      6
                    A"                     A"                     A"
 Frequencies --   750.5825               843.4682               894.3768
 Red. masses --     1.2062                 1.2230                 1.3236
 Frc consts  --     0.4004                 0.5126                 0.6238
 IR Inten    --    96.0567                 9.8247                 6.0984

                     7                      8                      9
                    A'                     A'                     A'
 Frequencies --   928.4221               945.2554              1043.6013
 Red. masses --     5.6581                 4.0623                 1.8180
 Frc consts  --     2.8735                 2.1386                 1.1666
 IR Inten    --     8.8043                 5.6949                41.2267

                    10                     11                     12
                    A'                     A'                     A'
 Frequencies --  1057.2229              1141.8901              1175.0604
 Red. masses --     1.4466                 1.9087                 2.7428
 Frc consts  --     0.9526                 1.4663                 2.2313
 IR Inten    --     6.9894                22.8084                 0.1106

                    13                     14                     15
                    A'                     A'                     A'
 Frequencies --  1281.0023              1384.1117              1422.1836
 Red. masses --     1.9584                 2.2909                 3.3900
 Frc consts  --     1.8934                 2.5858                 4.0398
 IR Inten    --     1.8408                 5.6487                12.3528

                    16                     17                     18
                    A'                     A'                     A'
 Frequencies --  1476.0238              1567.4713              3245.4148
 Red. masses --     2.4889                 2.8146                 1.0932
 Frc consts  --     3.1948                 4.0745                 6.7840
 IR Inten    --     7.3962                 6.3183                 2.9463

                    19                     20                     21
                    A'                     A'                     A'
 Frequencies --  3258.3587              3275.2955              3662.8959
 Red. masses --     1.0935                 1.1063                 1.0816
 Frc consts  --     6.8402                 6.9925                 8.5500
 IR Inten    --     1.1377                 0.3027                85.3105

 - Thermochemistry -
 -------------------
 Temperature   298.150 Kelvin.  Pressure   1.00000 Atm.
 Atom     1 has atomic number  1 and mass   1.00783

 Molecular mass:    68.03745 amu.
 Principal axes and moments of inertia in atomic units:
                           1         2         3
     Eigenvalues --   186.64545 190.76332 377.40877
           X            0.93706   0.34916   0.00000
           Y           -0.34916   0.93706   0.00000
           Z            0.00000   0.00000   1.00000
 This molecule is an asymmetric top.
 Rotational symmetry number  1.
 Rotational temperatures (Kelvin)      0.46406     0.45404     0.22950
 Rotational constants (GHZ):           9.66936     9.46063     4.78193
 Zero-point vibrational energy     186608.2 (Joules/Mol)
                                   44.60043 (Kcal/Mol)
 Warning -- explicit consideration of   1 degrees of freedom as
           vibrations may cause significant error
 Vibrational temperatures:    748.24   914.83   992.64  1079.92  1213.56
          (Kelvin)           1286.81  1335.79  1360.01  1501.51  1521.11
                             1642.92  1690.65  1843.07  1991.43  2046.20
                             2123.67  2255.24  4669.42  4688.05  4712.41
                             5270.08

 Zero-point correction=                           0.071075 (Hartree/Particle)
 Thermal correction to Energy=                    0.074822
 Thermal correction to Enthalpy=                  0.075766
 Thermal correction to Gibbs Free Energy=         0.044811
 Sum of electronic and zero-point Energies=           -226.207639
 Sum of electronic and thermal Energies=              -226.203893
 Sum of electronic and thermal Enthalpies=            -226.202949
 Sum of electronic and thermal Free Energies=         -226.233903

                     E (Thermal)             CV                S
                      KCal/Mol        Cal/Mol-Kelvin    Cal/Mol-Kelvin
 Total                   46.951             13.328             65.150
 Electronic               0.000              0.000              0.000
 Translational            0.889              2.981             38.570
 Rotational               0.889              2.981             24.111
 Vibrational             45.174              7.366              2.468
 Vibration     1          0.875              1.206              0.610

 Optimization completed.
    -- Stationary point found.
 Normal termination of Gaussian 09 at Tue Feb  1 08:56:49 2011.
