 Gaussian 98, Revision A.6,
 Gaussian 98:  IBM-RS6000-G98RevA.6 19-Oct-1998

 -----------------------
 #B3LYP/6-31G** opt freq
 -----------------------

 -------------------------------
 1H pyrazole C3H4N2 casno=288131
 -------------------------------
 Symbolic Z-matrix:
 Charge =  0 Multiplicity = 1

 SCF Done:  E(RB+HF-LYP) =  -226.137824113     A.U. after   15 cycles
 SCF Done:  E(RB+HF-LYP) =  -226.195136198     A.U. after   13 cycles
 SCF Done:  E(RB+HF-LYP) =  -226.206762477     A.U. after   13 cycles
 SCF Done:  E(RB+HF-LYP) =  -226.206954723     A.U. after   10 cycles
 SCF Done:  E(RB+HF-LYP) =  -226.207022497     A.U. after   10 cycles
 SCF Done:  E(RB+HF-LYP) =  -226.207026536     A.U. after    9 cycles
 Optimization completed.
    -- Stationary point found.
 Normal termination of Gaussian 98.

 ----------------------------------------------------
 #N Geom=AllCheck Guess=TCheck RB3LYP/6-31G(d,p) Freq
 ----------------------------------------------------

 1H pyrazole C3H4N2 casno=288131
 -------------------------------
 Redundant internal coordinates taken from checkpointfile:
 /wrk/rdj3/Gau-38280.chk
 Charge =  0 Multiplicity = 1

                         Standard orientation:
 ---------------------------------------------------------------------
 Center     Atomic     Atomic              Coordinates (Angstroms)
 Number     Number      Type              X           Y           Z
 ---------------------------------------------------------------------
    1          1             0        2.106203    0.729803    0.000000
    2          6             0        1.112642    0.306453    0.000000
    3          1             0        1.266567   -1.896032    0.000000
    4          6             0        0.665181   -0.999707    0.000000
    5          1             0       -1.479193   -1.684623    0.000000
    6          6             0       -0.744322   -0.891068    0.000000
    7          7             0       -1.149648    0.378901    0.000000
    8          1             0       -0.047042    2.093745    0.000000
    9          7             0        0.000000    1.087247    0.000000
 ---------------------------------------------------------------------

 SCF Done:  E(RB+HF-LYP) =  -226.207026536     A.U. after    1 cycles

  The electronic state is 1-A'.
 Alpha  occ. eigenvalues --  -14.40678 -14.34364 -10.22213 -10.19887 -10.17887
 Alpha  occ. eigenvalues --   -1.03832  -0.81191  -0.77319  -0.60759  -0.58944
 Alpha  occ. eigenvalues --   -0.54067  -0.44030  -0.43092  -0.42457  -0.39443
 Alpha  occ. eigenvalues --   -0.28479  -0.25428  -0.24380
 Alpha virt. eigenvalues --    0.02302   0.07602   0.07969   0.13412   0.15748
 Alpha virt. eigenvalues --    0.16920   0.22105   0.23435   0.29019   0.39758
 Alpha virt. eigenvalues --    0.43165   0.53284   0.54817   0.55776   0.59483

  Exact polarizability:  46.495   1.967  48.312   0.000   0.004  17.328
 Approx polarizability:  77.881   1.079  80.324   0.000   0.000  25.802

                     1                      2                      3
                    A"                     A"                     A"
 Frequencies --   511.3317               637.4043               692.2704
 Red. masses --     1.6870                 2.6225                 2.9316
 Frc consts  --     0.2599                 0.6278                 0.8278
 IR Inten    --    58.7556                 0.0048                23.2339
 Raman Activ --     0.0000                 0.0000                 0.0000

                     4                      5                      6
                    A"                     A"                     A"
 Frequencies --   756.3264               839.9594               893.7191
 Red. masses --     1.2111                 1.2108                 1.3101
 Frc consts  --     0.4082                 0.5033                 0.6166
 IR Inten    --    68.7048                 8.9852                 3.9304
 Raman Activ --     0.0000                 0.0000                 0.0000

                     7                      8                      9
                    A'                     A'                     A'
 Frequencies --   920.7328               939.8586              1053.9284
 Red. masses --     5.6227                 4.0580                 1.7136
 Frc consts  --     2.8084                 2.1120                 1.1214
 IR Inten    --     9.1815                 6.1541                34.7872
 Raman Activ --     0.0000                 0.0000                 0.0000

                    10                     11                     12
                    A'                     A'                     A'
 Frequencies --  1063.8743              1151.7307              1184.8012
 Red. masses --     1.4296                 1.8206                 2.8395
 Frc consts  --     0.9533                 1.4229                 2.3485
 IR Inten    --     8.4050                17.9080                 0.6853
 Raman Activ --     0.0000                 0.0000                 0.0000

                    13                     14                     15
                    A'                     A'                     A'
 Frequencies --  1287.3449              1395.0039              1440.3045
 Red. masses --     1.7742                 2.4800                 3.7478
 Frc consts  --     1.7324                 2.8435                 4.5808
 IR Inten    --     2.4023                 4.4100                13.1883
 Raman Activ --     0.0000                 0.0000                 0.0000

                    16                     17                     18
                    A'                     A'                     A'
 Frequencies --  1494.6683              1582.0006              3254.9131
 Red. masses --     2.6353                 3.0313                 1.0929
 Frc consts  --     3.4688                 4.4699                 6.8217
 IR Inten    --     6.7632                 6.3598                 5.0276
 Raman Activ --     0.0000                 0.0000                 0.0000

                    19                     20                     21
                    A'                     A'                     A'
 Frequencies --  3269.8389              3287.8524              3681.5244
 Red. masses --     1.0931                 1.1067                 1.0817
 Frc consts  --     6.8859                 7.0488                 8.6379
 IR Inten    --     2.4726                 1.0426                69.5871
 Raman Activ --     0.0000                 0.0000                 0.0000

 - Thermochemistry -
 -------------------
 Temperature   298.150 Kelvin.  Pressure   1.00000 Atm.
 Atom  1 has atomic number  1 and mass   1.00783

 Molecular mass:    68.03745 amu.
 Principal axes and moments of inertia in atomic units:
                           1         2         3
     EIGENVALUES --   187.28788 191.98656 379.27443
           X            0.92287   0.38512   0.00000
           Y           -0.38512   0.92287   0.00000
           Z            0.00000   0.00000   1.00000
 THIS MOLECULE IS AN ASYMMETRIC TOP.
 ROTATIONAL SYMMETRY NUMBER  1.
 ROTATIONAL TEMPERATURES (KELVIN)      0.46246     0.45114     0.22837
 ROTATIONAL CONSTANTS (GHZ)            9.63619     9.40035     4.75840
 Zero-point vibrational energy     187451.2 (Joules/Mol)
                                   44.80191 (Kcal/Mol)
 WARNING-- EXPLICIT CONSIDERATION OF   1 DEGREES OF FREEDOM AS
           VIBRATIONS MAY CAUSE SIGNIFICANT ERROR
 VIBRATIONAL TEMPERATURES:    735.69   917.08   996.02  1088.18  1208.51
          (KELVIN)           1285.85  1324.72  1352.24  1516.36  1530.67
                             1657.07  1704.65  1852.19  2007.09  2072.26
                             2150.48  2276.13  4683.07  4704.54  4730.46
                             5296.86

 Zero-point correction=                           0.071396 (Hartree/Particle)
 Thermal correction to Energy=                    0.075143
 Thermal correction to Enthalpy=                  0.076087
 Thermal correction to Gibbs Free Energy=         0.045123
 Sum of electronic and zero-point Energies=           -226.135630
 Sum of electronic and thermal Energies=              -226.131883
 Sum of electronic and thermal Enthalpies=            -226.130939
 Sum of electronic and thermal Free Energies=         -226.161904

                     E (Thermal)             CV                S
                      KCAL/MOL        CAL/MOL-KELVIN    CAL/MOL-KELVIN
 TOTAL                   47.153             13.300             65.170
 ELECTRONIC               0.000              0.000              0.000
 TRANSLATIONAL            0.889              2.981             38.570
 ROTATIONAL               0.889              2.981             24.126
 VIBRATIONAL             45.376              7.339              2.474
 VIBRATION  1             0.866              1.225              0.630
                       Q            LOG10(Q)             LN(Q)
 TOTAL BOT       0.175813D-20        -20.754948        -47.790035
 TOTAL V=0       0.121587D+13         12.084888         27.826484
 VIB (BOT)       0.190657D-32        -32.719747        -75.340002
 VIB (BOT)  1    0.318177D+00         -0.497331         -1.145147
 VIB (V=0)       0.131853D+01          0.120089          0.276516
 VIB (V=0)  1    0.109265D+01          0.038482          0.088608
 ELECTRONIC      0.100000D+01          0.000000          0.000000
 TRANSLATIONAL   0.220588D+08          7.343582         16.909224
 ROTATIONAL      0.418039D+05          4.621216         10.640744
 ***** Axes restored to original set *****
 -------------------------------------------------------------------
 Center     Atomic                   Forces (Hartrees/Bohr)
 Number     Number              X              Y              Z
 -------------------------------------------------------------------
    1          1          -0.000016451    0.000000000   -0.000103202
    2          6          -0.000281005    0.000000000    0.000578859
    3          1           0.000010392    0.000000000   -0.000003996
    4          6           0.000113229    0.000000000   -0.000159729
    5          1           0.000060009    0.000000000    0.000048891
    6          6          -0.000322057    0.000000000    0.000305809
    7          7           0.000221827    0.000000000   -0.000009063
    8          1           0.000083566    0.000000000    0.000077305
    9          7           0.000130489    0.000000000   -0.000734872
 -------------------------------------------------------------------
 Cartesian Forces:  Max     0.000734872 RMS     0.000218239

 GradGradGradGradGradGradGradGradGradGradGradGradGradGradGradGradGradGrad
 Berny optimization.
 Internal  Forces:  Max     0.000417499 RMS     0.000115430
 Search for a local minimum.
 Step number   1 out of a maximum of  48
 All quantities printed in internal units (Hartrees-Bohrs-Radians)
 Second derivative matrix not updated -- analytic derivatives used.
     Eigenvalues ---    0.00687   0.01147   0.01605   0.02790   0.05845
     Eigenvalues ---    0.06189   0.09454   0.10476   0.11127   0.11921
     Eigenvalues ---    0.22149   0.26553   0.34480   0.36935   0.37646
     Eigenvalues ---    0.37893   0.40197   0.42843   0.48065   0.49453
     Eigenvalues ---    0.568561000.000001000.000001000.000001000.00000
     Eigenvalues --- 1000.000001000.000001000.000001000.000001000.00000
     Eigenvalues --- 1000.000001000.000001000.000001000.000001000.00000
     Eigenvalues --- 1000.000001000.000001000.00000
 Angle between quadratic step and forces=  32.85 degrees.
 Linear search not attempted -- first point.
 Iteration  1 RMS(Cart)=  0.00036773 RMS(Int)=  0.00000017
 Iteration  2 RMS(Cart)=  0.00000017 RMS(Int)=  0.00000002
 Variable       Old X    -DE/DX   Delta X   Delta X   Delta X     New X
                                 (Linear)    (Quad)   (Total)
    R1        2.04089   0.00006   0.00000   0.00015   0.00015   2.04105
    R2        2.60910   0.00014   0.00000   0.00058   0.00058   2.60968
    R3        2.56864  -0.00042   0.00000  -0.00114  -0.00114   2.56750
    R4        2.03974   0.00001   0.00000   0.00000   0.00000   2.03973
    R5        2.67148   0.00010   0.00000   0.00021   0.00021   2.67169
    R6        2.04385   0.00006   0.00000   0.00021   0.00021   2.04405
    R7        2.51916  -0.00034   0.00000  -0.00058  -0.00058   2.51858
    R8        2.55179   0.00003   0.00000   0.00024   0.00024   2.55203
    R9        1.90408  -0.00001   0.00000  -0.00001  -0.00001   1.90408
    A1        2.30364  -0.00002   0.00000  -0.00078  -0.00078   2.30286
    A2        2.12690   0.00014   0.00000   0.00097   0.00097   2.12787
    A3        1.85265  -0.00012   0.00000  -0.00019  -0.00019   1.85246
    A4        2.22059   0.00004   0.00000   0.00020   0.00020   2.22078
    A5        1.82392  -0.00007   0.00000  -0.00030  -0.00030   1.82362
    A6        2.23868   0.00003   0.00000   0.00010   0.00010   2.23878
    A7        2.24089   0.00001   0.00000   0.00005   0.00005   2.24095
    A8        1.95666   0.00006   0.00000   0.00028   0.00028   1.95694
    A9        2.08563  -0.00007   0.00000  -0.00033  -0.00033   2.08530
   A10        1.81406  -0.00011   0.00000  -0.00040  -0.00040   1.81366
   A11        1.97749   0.00024   0.00000   0.00061   0.00061   1.97810
   A12        2.22940  -0.00001   0.00000   0.00065   0.00065   2.23005
   A13        2.07630  -0.00023   0.00000  -0.00126  -0.00126   2.07504
    D1        0.00000   0.00000   0.00000   0.00000   0.00000   0.00000
    D2        3.14159   0.00000   0.00000   0.00000   0.00000   3.14159
    D3        3.14159   0.00000   0.00000   0.00000   0.00000   3.14159
    D4        0.00000   0.00000   0.00000   0.00000   0.00000   0.00000
    D5        3.14159   0.00000   0.00000   0.00000   0.00000   3.14159
    D6        0.00000   0.00000   0.00000   0.00000   0.00000   0.00000
    D7        0.00000   0.00000   0.00000   0.00000   0.00000   0.00000
    D8        3.14159   0.00000   0.00000   0.00000   0.00000   3.14159
    D9        3.14159   0.00000   0.00000   0.00000   0.00000   3.14159
   D10        0.00000   0.00000   0.00000   0.00000   0.00000   0.00000
   D11        0.00000   0.00000   0.00000   0.00000   0.00000   0.00000
   D12        3.14159   0.00000   0.00000   0.00000   0.00000   3.14159
   D13        0.00000   0.00000   0.00000   0.00000   0.00000   0.00000
   D14        3.14159   0.00000   0.00000   0.00000   0.00000   3.14159
   D15        0.00000   0.00000   0.00000   0.00000   0.00000   0.00000
   D16        3.14159   0.00000   0.00000   0.00000   0.00000   3.14159
         Item               Value     Threshold  Converged?
 Maximum Force            0.000417     0.000450     YES
 RMS     Force            0.000115     0.000300     YES
 Maximum Displacement     0.001377     0.001800     YES
 RMS     Displacement     0.000368     0.001200     YES
 Predicted change in Energy=-7.675350D-07
 Optimization completed.
    -- Stationary point found.
                         ----------------------------
                         !   Optimized Parameters   !
                         ! (Angstroms and Degrees)  !
 ------------------------                            -------------------------
 ! Name  Definition              Value          Derivative Info.             !
 -----------------------------------------------------------------------------
 ! R1    R(1,2)                  1.08           -DE/DX =    0.0001           !
 ! R2    R(2,4)                  1.3807         -DE/DX =    0.0001           !
 ! R3    R(2,9)                  1.3593         -DE/DX =   -0.0004           !
 ! R4    R(3,4)                  1.0794         -DE/DX =    0.               !
 ! R5    R(4,6)                  1.4137         -DE/DX =    0.0001           !
 ! R6    R(5,6)                  1.0816         -DE/DX =    0.0001           !
 ! R7    R(6,7)                  1.3331         -DE/DX =   -0.0003           !
 ! R8    R(7,9)                  1.3503         -DE/DX =    0.               !
 ! R9    R(8,9)                  1.0076         -DE/DX =    0.               !
 ! A1    A(1,2,4)              131.9889         -DE/DX =    0.               !
 ! A2    A(1,2,9)              121.8623         -DE/DX =    0.0001           !
 ! A3    A(4,2,9)              106.1489         -DE/DX =   -0.0001           !
 ! A4    A(2,4,3)              127.2302         -DE/DX =    0.               !
 ! A5    A(2,4,6)              104.5029         -DE/DX =   -0.0001           !
 ! A6    A(3,4,6)              128.2669         -DE/DX =    0.               !
 ! A7    A(4,6,5)              128.3938         -DE/DX =    0.               !
 ! A8    A(4,6,7)              112.1085         -DE/DX =    0.0001           !
 ! A9    A(5,6,7)              119.4977         -DE/DX =   -0.0001           !
 ! A10   A(6,7,9)              103.9378         -DE/DX =   -0.0001           !
 ! A11   A(2,9,7)              113.3019         -DE/DX =    0.0002           !
 ! A12   A(2,9,8)              127.7351         -DE/DX =    0.               !
 ! A13   A(7,9,8)              118.963          -DE/DX =   -0.0002           !
 ! D1    D(1,2,4,3)              0.             -DE/DX =    0.               !
 ! D2    D(1,2,4,6)            180.             -DE/DX =    0.               !
 ! D3    D(9,2,4,3)            180.             -DE/DX =    0.               !
 ! D4    D(9,2,4,6)              0.             -DE/DX =    0.               !
 ! D5    D(1,2,9,7)            180.             -DE/DX =    0.               !
 ! D6    D(1,2,9,8)              0.             -DE/DX =    0.               !
 ! D7    D(4,2,9,7)              0.             -DE/DX =    0.               !
 ! D8    D(4,2,9,8)            180.             -DE/DX =    0.               !
 ! D9    D(2,4,6,5)            180.             -DE/DX =    0.               !
 ! D10   D(2,4,6,7)              0.             -DE/DX =    0.               !
 ! D11   D(3,4,6,5)              0.             -DE/DX =    0.               !
 ! D12   D(3,4,6,7)            180.             -DE/DX =    0.               !
 ! D13   D(4,6,7,9)              0.             -DE/DX =    0.               !
 ! D14   D(5,6,7,9)            180.             -DE/DX =    0.               !
 ! D15   D(6,7,9,2)              0.             -DE/DX =    0.               !
 ! D16   D(6,7,9,8)            180.             -DE/DX =    0.               !
 -----------------------------------------------------------------------------
 GradGradGradGradGradGradGradGradGradGradGradGradGradGradGradGradGradGrad

 1\1\GINC-QUANTUM\Freq\RB3LYP\6-31G(d,p)\C3H4N2\RDJ3\19-Jun-2000\0\\#N
 GEOM=ALLCHECK GUESS=TCHECK RB3LYP/6-31G(D,P) FREQ\\1H pyrazole C3H4N2
 casno=288131\\0,1\H,-1.8933116829,0.,-1.1764667319\C,-0.9387501063,0.,
 -0.6712923976\H,0.6751742378,0.,-2.1779047279\C,0.357651936,0.,-1.1462
 828172\H,2.2401353892,0.,0.0881031377\C,1.1609168897,0.,0.0170176597\N
 ,0.4296812815,0.,1.1316498452\H,-1.5967681687,0.,1.3551059979\N,-0.844
 5587232,0.,0.6847083913\\Version=IBM-RS6000-G98RevA.6\State=1-A'\HF=-2
 26.2070265\RMSD=1.134e-09\RMSF=2.182e-04\Dipole=-0.7931912,0.,-0.41848
 04\DipoleDeriv=-0.0144884,0.0000003,-0.0483742,0.0000855,0.164268,0.00
 004,-0.0325863,-0.0000039,0.0682105,0.149442,-0.0000091,-0.1120147,-0.
 0000754,-0.0697413,-0.0000695,-0.2964145,-0.0000089,0.2206354,0.086606
 5,0.0000084,0.0284116,0.0000287,0.1477798,-0.0000253,0.0349832,0.00000
 93,-0.0366262,-0.2548014,0.0000383,0.0013435,0.0000623,-0.1929583,0.00
 0027,-0.0530989,0.0000121,-0.0051526,-0.0568858,0.0000053,-0.0087579,0
 .0000021,0.1253692,-0.0000919,-0.0263986,0.0000109,0.0738371,0.2267605
 ,0.0000017,0.1224604,-0.0001621,-0.0465773,0.0001287,0.199095,-0.00012
 94,0.1786985,0.0143593,-0.0000878,-0.2276114,0.000256,-0.2391124,-0.00
 0176,-0.0838205,0.0000454,-0.5790134,0.1966085,0.0000335,-0.0380439,0.
 0001072,0.3132198,-0.0000621,-0.0292094,-0.0000357,0.2135068,-0.347600
 9,0.0000094,0.2825865,-0.0003044,-0.2022476,0.0002291,0.28745,0.000100
 2,-0.1340957\Polar=49.5155884,-0.0025898,17.3282355,-0.4823632,0.00264
 6,45.2915082\PG=CS [SG(C3H4N2)]\NImag=0\\0.30440055,-0.00000013,0.0202
 9657,0.13520560,-0.00000028,0.12349621,-0.29889171,-0.00000187,-0.1161
 6996,0.85877359,0.00000129,-0.02455722,0.00000091,-0.00000093,0.115736
 60,-0.12509189,0.00000039,-0.12106959,0.09572986,0.00000130,0.64398465
 ,0.00035129,0.00000051,-0.00080645,0.00202539,0.00000043,0.02628392,0.
 07685414,0.00000003,-0.00261156,0.00000010,-0.00000038,-0.00231850,0.0
 0000048,0.00000013,0.02182256,0.00041764,-0.00000270,-0.00015167,-0.00
 298060,-0.00000156,-0.00019947,-0.09343888,-0.00000097,0.34825050,-0.0
 0728072,0.00000190,0.00900942,-0.34656712,-0.00000123,0.07419819,-0.08
 433421,0.00000056,0.08679014,0.62306815,-0.00000083,0.00053622,-0.0000
 0043,-0.00000178,-0.06116545,-0.00000026,0.00000026,-0.02553108,-0.000
 00110,0.00000310,0.11383111,-0.01542953,0.00000211,0.01314683,0.102727
 33,0.00000097,-0.14286666,0.08439849,0.00000124,-0.33476862,-0.1211789
 3,0.00000084,0.83033821,-0.00022235,-0.00000400,0.00027527,-0.00068320
 ,-0.00000215,-0.00128244,-0.00008031,-0.00000206,-0.00040419,-0.005299
 99,-0.00000180,0.00371889,0.37170551,-0.00000054,0.00089229,-0.0000001
 1,0.00000166,0.00444552,-0.00000067,-0.00000041,-0.00182808,0.00000290
 ,0.00000032,0.00072366,-0.00000129,0.00000331,0.02456753,-0.00107019,-
 0.00000028,0.00113535,-0.00283203,0.00000005,-0.00602749,0.00089826,-0
 .00000005,0.00022975,-0.02214145,-0.00000015,0.00705142,0.02016063,0.0
 0000042,0.05644831,-0.00440475,0.00000254,0.00469253,-0.05487830,0.000
 00426,-0.00011186,0.01347334,0.00000206,0.01239827,-0.17980232,0.00000
 002,-0.10587038,-0.35073157,-0.00000264,-0.03138552,0.87953880,0.00000
 079,0.00503905,0.00000029,0.00000432,0.01057809,-0.00000041,-0.0000011
 3,-0.00322709,0.00000298,-0.00000702,-0.06422633,-0.00000340,0.0000056
 8,-0.03042606,-0.00000016,-0.00000410,0.13809945,0.00115273,0.00000095
 ,-0.00237730,-0.07060493,-0.00000155,0.03639013,-0.01518662,-0.0000006
 7,-0.00955977,-0.06983996,0.00000007,-0.23162645,-0.02424184,-0.000004
 04,-0.06141542,-0.00920527,0.00000721,0.60770158,0.00064935,0.00000204
 ,0.00070188,-0.05745194,0.00000237,-0.04945997,-0.00219455,0.00000135,
 -0.00126343,0.02803847,0.00000094,0.03892136,-0.01417324,-0.00000341,0
 .02858799,-0.17949452,-0.00000084,0.14133666,0.49350984,0.00000021,0.0
 0652579,0.00000005,-0.00001053,0.01677523,0.00000158,0.00000295,0.0066
 1803,-0.00000880,0.00001144,0.02007319,0.00000691,-0.00001294,-0.00768
 244,0.00000009,0.00001080,-0.07185035,-0.00001050,0.00000359,0.1039244
 6,0.00212315,-0.00000038,-0.00555931,-0.01848294,0.00000359,-0.0662987
 1,-0.00593826,0.00000107,-0.00407205,-0.03330051,-0.00000114,-0.077413
 69,-0.00041736,0.00000092,0.00634181,0.10553371,-0.00000314,-0.3053212
 9,-0.04832662,0.00000623,0.56155893,-0.00023848,-0.00000144,0.00043146
 ,0.00981519,-0.00000050,-0.00439425,0.00073113,-0.00000026,-0.00007156
 ,0.00206276,-0.00000083,-0.00317454,-0.00040885,0.00000196,0.00148945,
 -0.00752321,0.00000078,-0.00562577,-0.02089320,-0.00000325,0.02447821,
 0.29653943,0.00000022,-0.00146293,0.00000010,-0.00000419,-0.00826826,0
 .00000121,0.00000123,0.00231053,-0.00000458,0.00000432,0.00300074,0.00
 000393,-0.00000725,0.00227073,-0.00000014,0.00000634,0.00425538,-0.000
 00349,0.00000336,-0.01262048,0.00000307,-0.00000192,0.01193744,-0.0006
 5901,0.00000130,0.00016593,0.02555355,0.00000025,-0.00488037,0.0013066
 7,0.00000024,0.00019849,-0.00239433,0.00000074,-0.00705687,-0.00051061
 ,-0.00000185,0.00100205,-0.00591671,-0.00000027,0.00076989,-0.01008428
 ,0.00000197,0.01597655,-0.20674898,0.00000141,0.25100675,0.00563682,0.
 00000044,-0.03333975,-0.11214189,-0.00000352,-0.01587156,-0.00682621,-
 0.00000143,-0.00144739,-0.02988501,0.00000094,0.01588730,-0.00010600,-
 0.00000025,0.00629286,-0.11617748,0.00000153,0.05221500,-0.24799021,-0
 .00000227,-0.02566938,-0.28008476,-0.00000211,0.19945369,0.78757474,-0
 .00000106,-0.00465821,-0.00000063,0.00001371,-0.05122601,-0.00000360,-
 0.00000396,0.00476518,0.00001384,-0.00001338,0.01275795,-0.00001130,0.
 00002121,0.00703685,0.00000022,-0.00001928,0.01175786,0.00001203,-0.00
 000938,-0.06176343,-0.00001024,0.00000548,-0.00142314,-0.00000380,0.00
 000666,0.08275294,0.00335150,-0.00000111,-0.00878646,-0.01294029,-0.00
 000397,-0.33903249,0.00248288,-0.00000143,0.00007285,0.07885742,0.0000
 0144,-0.05680416,0.00270166,0.00000372,-0.00476577,0.02986521,-0.00000
 311,-0.03456137,-0.10041357,0.00000249,-0.12521224,0.19361597,-0.00000
 151,-0.25718242,-0.19752077,0.00000348,0.82627206\\0.00001645,0.,0.000
 10320,0.00028101,0.,-0.00057886,-0.00001039,0.,0.00000400,-0.00011323,
 0.,0.00015973,-0.00006001,0.,-0.00004889,0.00032206,0.,-0.00030581,-0.
 00022183,0.,0.00000906,-0.00008357,0.,-0.00007730,-0.00013049,0.,0.000
 73487\\\@

 THERE ARE TWO THINGS THAT EVERYBODY THINKS THEY CAN DO BETTER THAN
 ANYONE ELSE - PUNCH THE FIRE, AND EDIT A DAILY PAPER.
 -- UNCLE ESEK, "CENTURY MAGAZINE", 1885
 Job cpu time:  0 days  0 hours 16 minutes 53.6 seconds.
 File lengths (MBytes):  RWF=   15 Int=    0 D2E=    0 Chk=    3 Scr=    1
 Normal termination of Gaussian 98.
