 Gaussian 98, Revision A.4,
 Gaussian 98:  IBM-RS6000-G98RevA.4 11-Sep-1998

 -----------------------
 #B3LYP/6-311G* opt freq
 -----------------------

 -------------------------------
 1H pyrazole C3H4N2 casno=288131
 -------------------------------
 Symbolic Z-matrix:
 Charge =  0 Multiplicity = 1

 SCF Done:  E(RB+HF-LYP) =  -226.185553119     A.U. after   14 cycles
 SCF Done:  E(RB+HF-LYP) =  -226.240529381     A.U. after   13 cycles
 SCF Done:  E(RB+HF-LYP) =  -226.251251114     A.U. after   13 cycles
 SCF Done:  E(RB+HF-LYP) =  -226.251432247     A.U. after   10 cycles
 SCF Done:  E(RB+HF-LYP) =  -226.251498439     A.U. after   10 cycles
 SCF Done:  E(RB+HF-LYP) =  -226.251501229     A.U. after    8 cycles
 Optimization completed.
    -- Stationary point found.
 Normal termination of Gaussian 98.

 ---------------------------------------------------
 #N Geom=AllCheck Guess=TCheck RB3LYP/6-311G(d) Freq
 ---------------------------------------------------

 1H pyrazole C3H4N2 casno=288131
 -------------------------------
 Redundant internal coordinates taken from checkpointfile:
 /wrk/rdj3/Gau-12190.chk
 Charge =  0 Multiplicity = 1

                         Standard orientation:
 ---------------------------------------------------------------------
 Center     Atomic     Atomic              Coordinates (Angstroms)
 Number     Number      Type              X           Y           Z
 ---------------------------------------------------------------------
    1          1             0        2.104460    0.728476    0.000000
    2          6             0        1.111549    0.305678    0.000000
    3          1             0        1.264207   -1.894567    0.000000
    4          6             0        0.663748   -0.998395    0.000000
    5          1             0       -1.482289   -1.679321    0.000000
    6          6             0       -0.744772   -0.889469    0.000000
    7          7             0       -1.145872    0.377870    0.000000
    8          1             0       -0.048422    2.090965    0.000000
    9          7             0        0.000000    1.086066    0.000000
 ---------------------------------------------------------------------

 SCF Done:  E(RB+HF-LYP) =  -226.251501229     A.U. after    1 cycles

  The electronic state is 1-A'.
 Alpha  occ. eigenvalues --  -14.38529 -14.32303 -10.20802 -10.18453 -10.16457
 Alpha  occ. eigenvalues --   -1.04784  -0.81974  -0.78113  -0.61530  -0.59757
 Alpha  occ. eigenvalues --   -0.54858  -0.44931  -0.43929  -0.43223  -0.40324
 Alpha  occ. eigenvalues --   -0.29199  -0.26192  -0.25159
 Alpha virt. eigenvalues --    0.01439   0.03700   0.06541   0.07682   0.08861
 Alpha virt. eigenvalues --    0.10771   0.19979   0.21279   0.24699   0.26670
 Alpha virt. eigenvalues --    0.34569   0.38566   0.38951   0.40342   0.41738

  Exact polarizability:  48.166   1.894  49.353   0.003  -0.008  21.560
 Approx polarizability:  79.327   1.150  81.216   0.000   0.000  31.856

                     1                      2                      3
                    A"                     A"                     A"
 Frequencies --   514.7178               639.5852               694.0271
 Red. masses --     1.6891                 2.5135                 2.9217
 Frc consts  --     0.2637                 0.6058                 0.8292
 IR Inten    --    65.3190                 0.2539                21.2863
 Raman Activ --     0.0000                 0.0000                 0.0000

                     4                      5                      6
                    A"                     A"                     A"
 Frequencies --   744.8576               832.0681               884.6343
 Red. masses --     1.2196                 1.2142                 1.3262
 Frc consts  --     0.3987                 0.4953                 0.6115
 IR Inten    --    94.2999                12.3958                 5.6338
 Raman Activ --     0.0000                 0.0000                 0.0000

                     7                      8                      9
                    A'                     A'                     A'
 Frequencies --   927.9682               944.1397              1048.5354
 Red. masses --     5.5714                 4.0250                 1.6968
 Frc consts  --     2.8267                 2.1139                 1.0991
 IR Inten    --     9.8696                 5.5204                38.1594
 Raman Activ --     0.0000                 0.0000                 0.0000

                    10                     11                     12
                    A'                     A'                     A'
 Frequencies --  1057.3768              1145.5900              1181.8481
 Red. masses --     1.4609                 1.8933                 2.9395
 Frc consts  --     0.9623                 1.4639                 2.4191
 IR Inten    --     9.3225                20.4180                 0.5352
 Raman Activ --     0.0000                 0.0000                 0.0000

                    13                     14                     15
                    A'                     A'                     A'
 Frequencies --  1283.9882              1390.2109              1429.0235
 Red. masses --     1.9105                 2.4545                 3.4915
 Frc consts  --     1.8558                 2.7949                 4.2009
 IR Inten    --     2.3570                 5.2069                13.1768
 Raman Activ --     0.0000                 0.0000                 0.0000

                    16                     17                     18
                    A'                     A'                     A'
 Frequencies --  1491.2064              1576.4052              3235.2594
 Red. masses --     2.5372                 2.6994                 1.0926
 Frc consts  --     3.3242                 3.9523                 6.7377
 IR Inten    --     6.7719                 6.3574                 5.8214
 Raman Activ --     0.0000                 0.0000                 0.0000

                    19                     20                     21
                    A'                     A'                     A'
 Frequencies --  3249.0744              3266.3129              3677.2650
 Red. masses --     1.0939                 1.1067                 1.0815
 Frc consts  --     6.8040                 6.9567                 8.6165
 IR Inten    --     5.6294                 2.6347                62.3216
 Raman Activ --     0.0000                 0.0000                 0.0000

 - Thermochemistry -
 -------------------
 Temperature   298.150 Kelvin.  Pressure   1.00000 Atm.
 Atom  1 has atomic number  1 and mass   1.00783

 Molecular mass:    68.03745 amu.
 Principal axes and moments of inertia in atomic units:
                           1         2         3
     EIGENVALUES --   186.81873 191.29764 378.11637
           X            0.92925   0.36944   0.00000
           Y           -0.36944   0.92925   0.00000
           Z            0.00000   0.00000   1.00000
 THIS MOLECULE IS AN ASYMMETRIC TOP.
 ROTATIONAL SYMMETRY NUMBER  1.
 ROTATIONAL TEMPERATURES (KELVIN)      0.46362     0.45277     0.22907
 ROTATIONAL CONSTANTS (GHZ)            9.66039     9.43420     4.77298
 Zero-point vibrational energy     186701.8 (Joules/Mol)
                                   44.62279 (Kcal/Mol)
 WARNING-- EXPLICIT CONSIDERATION OF   1 DEGREES OF FREEDOM AS
           VIBRATIONS MAY CAUSE SIGNIFICANT ERROR
 VIBRATIONAL TEMPERATURES:    740.56   920.22   998.54  1071.68  1197.15
          (KELVIN)           1272.78  1335.13  1358.40  1508.60  1521.32
                             1648.24  1700.41  1847.36  2000.19  2056.03
                             2145.50  2268.08  4654.79  4674.67  4699.47
                             5290.73

 Zero-point correction=                           0.071111 (Hartree/Particle)
 Thermal correction to Energy=                    0.074862
 Thermal correction to Enthalpy=                  0.075806
 Thermal correction to Gibbs Free Energy=         0.044841
 Sum of electronic and zero-point Energies=           -226.180390
 Sum of electronic and thermal Energies=              -226.176639
 Sum of electronic and thermal Enthalpies=            -226.175695
 Sum of electronic and thermal Free Energies=         -226.206660

                     E (Thermal)             CV                S
                      KCAL/MOL        CAL/MOL-KELVIN    CAL/MOL-KELVIN
 TOTAL                   46.977             13.343             65.172
 ELECTRONIC               0.000              0.000              0.000
 TRANSLATIONAL            0.889              2.981             38.570
 ROTATIONAL               0.889              2.981             24.117
 VIBRATIONAL             45.199              7.381              2.484
 VIBRATION  1             0.870              1.217              0.622
                       Q            LOG10(Q)             LN(Q)
 TOTAL BOT       0.236910D-20        -20.625417        -47.491777
 TOTAL V=0       0.121095D+13         12.083127         27.822428
 VIB (BOT)       0.258092D-32        -32.588226        -75.037164
 VIB (BOT)  1    0.315115D+00         -0.501531         -1.154817
 VIB (V=0)       0.131922D+01          0.120317          0.277041
 VIB (V=0)  1    0.109101D+01          0.037830          0.087107
 ELECTRONIC      0.100000D+01          0.000000          0.000000
 TRANSLATIONAL   0.220588D+08          7.343582         16.909224
 ROTATIONAL      0.416128D+05          4.619227         10.636164
 ***** Axes restored to original set *****
 -------------------------------------------------------------------
 Center     Atomic                   Forces (Hartrees/Bohr)
 Number     Number              X              Y              Z
 -------------------------------------------------------------------
    1          1           0.000016149    0.000000000   -0.000087494
    2          6          -0.000140230    0.000000000    0.000568927
    3          1           0.000017063    0.000000000   -0.000014178
    4          6           0.000152635    0.000000000   -0.000290436
    5          1           0.000031782    0.000000000    0.000027727
    6          6          -0.000339131    0.000000000    0.000227462
    7          7           0.000161803    0.000000000    0.000053214
    8          1           0.000073373    0.000000000    0.000089813
    9          7           0.000026556    0.000000000   -0.000575036
 -------------------------------------------------------------------
 Cartesian Forces:  Max     0.000575036 RMS     0.000192620

 GradGradGradGradGradGradGradGradGradGradGradGradGradGradGradGradGradGrad
 Berny optimization.
 Internal  Forces:  Max     0.000316533 RMS     0.000090888
 Search for a local minimum.
 Step number   1 out of a maximum of  48
 All quantities printed in internal units (Hartrees-Bohrs-Radians)
 Second derivative matrix not updated -- analytic derivatives used.
     Eigenvalues ---    0.00689   0.01121   0.01564   0.02713   0.05864
     Eigenvalues ---    0.06228   0.09407   0.10401   0.11106   0.12080
     Eigenvalues ---    0.22214   0.26185   0.34005   0.36480   0.37183
     Eigenvalues ---    0.37351   0.39724   0.42369   0.47866   0.48895
     Eigenvalues ---    0.565441000.000001000.000001000.000001000.00000
     Eigenvalues --- 1000.000001000.000001000.000001000.000001000.00000
     Eigenvalues --- 1000.000001000.000001000.000001000.000001000.00000
     Eigenvalues --- 1000.000001000.000001000.00000
 Angle between quadratic step and forces=  30.04 degrees.
 Linear search not attempted -- first point.
 Iteration  1 RMS(Cart)=  0.00032708 RMS(Int)=  0.00000015
 Iteration  2 RMS(Cart)=  0.00000015 RMS(Int)=  0.00000002
 Variable       Old X    -DE/DX   Delta X   Delta X   Delta X     New X
                                 (Linear)    (Quad)   (Total)
    R1        2.03936   0.00003   0.00000   0.00008   0.00008   2.03944
    R2        2.60558   0.00013   0.00000   0.00053   0.00053   2.60611
    R3        2.56651  -0.00032   0.00000  -0.00101  -0.00101   2.56551
    R4        2.03852   0.00002   0.00000   0.00001   0.00001   2.03853
    R5        2.66966   0.00007   0.00000   0.00019   0.00019   2.66985
    R6        2.04213   0.00003   0.00000   0.00014   0.00014   2.04227
    R7        2.51201  -0.00021   0.00000  -0.00042  -0.00042   2.51158
    R8        2.54557   0.00000   0.00000   0.00028   0.00028   2.54585
    R9        1.90119   0.00000   0.00000   0.00002   0.00002   1.90120
    A1        2.30413  -0.00008   0.00000  -0.00100  -0.00100   2.30313
    A2        2.12691   0.00008   0.00000   0.00078   0.00078   2.12769
    A3        1.85214   0.00000   0.00000   0.00022   0.00022   1.85236
    A4        2.22050   0.00009   0.00000   0.00037   0.00037   2.22086
    A5        1.82439  -0.00016   0.00000  -0.00063  -0.00063   1.82376
    A6        2.23830   0.00007   0.00000   0.00026   0.00026   2.23856
    A7        2.24476  -0.00004   0.00000  -0.00018  -0.00018   2.24458
    A8        1.95449   0.00013   0.00000   0.00050   0.00050   1.95499
    A9        2.08393  -0.00008   0.00000  -0.00032  -0.00032   2.08361
   A10        1.81786  -0.00011   0.00000  -0.00040  -0.00040   1.81746
   A11        1.97590   0.00014   0.00000   0.00031   0.00031   1.97621
   A12        2.23106   0.00004   0.00000   0.00077   0.00077   2.23183
   A13        2.07623  -0.00018   0.00000  -0.00108  -0.00108   2.07515
    D1        0.00000   0.00000   0.00000   0.00000   0.00000   0.00000
    D2        3.14159   0.00000   0.00000   0.00000   0.00000   3.14159
    D3        3.14159   0.00000   0.00000   0.00000   0.00000   3.14159
    D4        0.00000   0.00000   0.00000   0.00000   0.00000   0.00000
    D5        3.14159   0.00000   0.00000   0.00000   0.00000   3.14159
    D6        0.00000   0.00000   0.00000   0.00000   0.00000   0.00000
    D7        0.00000   0.00000   0.00000   0.00000   0.00000   0.00000
    D8        3.14159   0.00000   0.00000   0.00000   0.00000   3.14159
    D9        3.14159   0.00000   0.00000   0.00000   0.00000   3.14159
   D10        0.00000   0.00000   0.00000   0.00000   0.00000   0.00000
   D11        0.00000   0.00000   0.00000   0.00000   0.00000   0.00000
   D12        3.14159   0.00000   0.00000   0.00000   0.00000   3.14159
   D13        0.00000   0.00000   0.00000   0.00000   0.00000   0.00000
   D14        3.14159   0.00000   0.00000   0.00000   0.00000   3.14159
   D15        0.00000   0.00000   0.00000   0.00000   0.00000   0.00000
   D16        3.14159   0.00000   0.00000   0.00000   0.00000   3.14159
         Item               Value     Threshold  Converged?
 Maximum Force            0.000317     0.000450     YES
 RMS     Force            0.000091     0.000300     YES
 Maximum Displacement     0.001023     0.001800     YES
 RMS     Displacement     0.000327     0.001200     YES
 Predicted change in Energy=-6.064681D-07
 Optimization completed.
    -- Stationary point found.
                         ----------------------------
                         !   Optimized Parameters   !
                         ! (Angstroms and Degrees)  !
 ------------------------                            -------------------------
 ! Name  Definition              Value          Derivative Info.             !
 -----------------------------------------------------------------------------
 ! R1    R(1,2)                  1.0792         -DE/DX =    0.               !
 ! R2    R(2,4)                  1.3788         -DE/DX =    0.0001           !
 ! R3    R(2,9)                  1.3581         -DE/DX =   -0.0003           !
 ! R4    R(3,4)                  1.0787         -DE/DX =    0.               !
 ! R5    R(4,6)                  1.4127         -DE/DX =    0.0001           !
 ! R6    R(5,6)                  1.0806         -DE/DX =    0.               !
 ! R7    R(6,7)                  1.3293         -DE/DX =   -0.0002           !
 ! R8    R(7,9)                  1.3471         -DE/DX =    0.               !
 ! R9    R(8,9)                  1.0061         -DE/DX =    0.               !
 ! A1    A(1,2,4)              132.0169         -DE/DX =   -0.0001           !
 ! A2    A(1,2,9)              121.8632         -DE/DX =    0.0001           !
 ! A3    A(4,2,9)              106.1198         -DE/DX =    0.               !
 ! A4    A(2,4,3)              127.225          -DE/DX =    0.0001           !
 ! A5    A(2,4,6)              104.5297         -DE/DX =   -0.0002           !
 ! A6    A(3,4,6)              128.2453         -DE/DX =    0.0001           !
 ! A7    A(4,6,5)              128.6155         -DE/DX =    0.               !
 ! A8    A(4,6,7)              111.9841         -DE/DX =    0.0001           !
 ! A9    A(5,6,7)              119.4004         -DE/DX =   -0.0001           !
 ! A10   A(6,7,9)              104.1557         -DE/DX =   -0.0001           !
 ! A11   A(2,9,7)              113.2106         -DE/DX =    0.0001           !
 ! A12   A(2,9,8)              127.8303         -DE/DX =    0.               !
 ! A13   A(7,9,8)              118.9591         -DE/DX =   -0.0002           !
 ! D1    D(1,2,4,3)              0.             -DE/DX =    0.               !
 ! D2    D(1,2,4,6)            180.             -DE/DX =    0.               !
 ! D3    D(9,2,4,3)            180.             -DE/DX =    0.               !
 ! D4    D(9,2,4,6)              0.             -DE/DX =    0.               !
 ! D5    D(1,2,9,7)            180.             -DE/DX =    0.               !
 ! D6    D(1,2,9,8)              0.             -DE/DX =    0.               !
 ! D7    D(4,2,9,7)              0.             -DE/DX =    0.               !
 ! D8    D(4,2,9,8)            180.             -DE/DX =    0.               !
 ! D9    D(2,4,6,5)            180.             -DE/DX =    0.               !
 ! D10   D(2,4,6,7)              0.             -DE/DX =    0.               !
 ! D11   D(3,4,6,5)              0.             -DE/DX =    0.               !
 ! D12   D(3,4,6,7)            180.             -DE/DX =    0.               !
 ! D13   D(4,6,7,9)              0.             -DE/DX =    0.               !
 ! D14   D(5,6,7,9)            180.             -DE/DX =    0.               !
 ! D15   D(6,7,9,2)              0.             -DE/DX =    0.               !
 ! D16   D(6,7,9,8)            180.             -DE/DX =    0.               !
 -----------------------------------------------------------------------------
 GradGradGradGradGradGradGradGradGradGradGradGradGradGradGradGradGradGrad

 1\1\GINC-WOLFRAM\Freq\RB3LYP\6-311G(d)\C3H4N2\RDJ3\09-Mar-2000\0\\#N G
 EOM=ALLCHECK GUESS=TCHECK RB3LYP/6-311G(D) FREQ\\1H pyrazole C3H4N2 ca
 sno=288131\\0,1\H,-1.8919482176,0.,-1.1747179507\C,-0.9378965872,0.,-0
 .6703215657\H,0.6741072595,0.,-2.1755883041\C,0.3567910618,0.,-1.14457
 54111\H,2.2380266837,0.,0.092391432\C,1.1599696512,0.,0.017619115\N,0.
 4288378686,0.,1.1277886635\H,-1.5928582972,0.,1.3554638183\N,-0.843196
 752,0.,0.6845139329\\Version=IBM-RS6000-G98RevA.4\State=1-A'\HF=-226.2
 515012\RMSD=4.145e-09\RMSF=1.926e-04\Dipole=-0.8075322,0.,-0.4081906\D
 ipoleDeriv=-0.0247037,0.0000555,-0.0593326,-0.0000394,0.187077,0.00003
 64,-0.0466304,0.0001157,0.0706626,0.1511389,-0.0001238,-0.1196999,0.00
 007,-0.088268,-0.0000079,-0.2884276,0.0000314,0.2265056,0.0938261,-0.0
 001067,0.0373959,-0.0002603,0.1753627,0.0001349,0.0434749,0.0003548,-0
 .0548952,-0.2490031,0.0001793,-0.0019082,0.0001867,-0.2344173,-0.00014
 66,-0.053455,-0.0003314,0.0023435,-0.0704444,-0.0003637,-0.0051607,0.0
 000729,0.1487607,0.000021,-0.0314975,-0.0000269,0.0819719,0.2360961,0.
 0002819,0.1120667,0.00006,-0.0752603,-0.0000323,0.197159,-0.0001564,0.
 1906712,0.0069881,0.0000643,-0.2211969,-0.0001426,-0.2231453,0.0000374
 ,-0.1014023,0.0001516,-0.5921529,0.1916343,-0.0002081,-0.0305922,-0.00
 00238,0.3309927,0.0000182,-0.0187191,0.0001389,0.2062227,-0.3355317,0.
 0002212,0.2884278,0.0000766,-0.2211021,-0.0000611,0.2994975,-0.0002776
 ,-0.1313289\Polar=50.7348549,0.0040394,21.5601756,-0.1912817,-0.007734
 ,46.7841152\PG=CS [SG(C3H4N2)]\NImag=0\\0.30090441,0.00000033,0.019828
 12,0.13327624,0.00000048,0.12204088,-0.29577674,-0.00000070,-0.1141146
 2,0.85067989,-0.00000071,-0.02390690,-0.00000070,0.00000047,0.11562692
 ,-0.12345149,-0.00000045,-0.11993913,0.09844803,0.00000054,0.63245735,
 0.00020375,-0.00000021,-0.00084827,0.00191999,0.00000008,0.02603481,0.
 07617176,0.00000213,-0.00266782,0.00000226,-0.00000285,-0.00218493,-0.
 00000242,-0.00000062,0.02120644,0.00055038,0.00000067,-0.00022308,-0.0
 0269669,0.00000044,0.00015947,-0.09203861,0.00000133,0.34335116,-0.007
 04384,-0.00000009,0.00884007,-0.33746265,0.00000099,0.07083674,-0.0836
 4972,-0.00000129,0.08533220,0.61030261,-0.00000111,0.00069188,-0.00000
 158,0.00000210,-0.06237714,0.00000253,0.00000101,-0.02465818,-0.000003
 41,0.00000013,0.11353049,-0.01505084,-0.00000148,0.01299868,0.09796844
 ,0.00000070,-0.14212411,0.08295251,-0.00000414,-0.33016648,-0.12185880
 ,0.00000543,0.82148727,-0.00021478,-0.00000123,0.00026851,-0.00073547,
 0.00000006,-0.00129518,-0.00016804,0.00000033,-0.00056539,-0.00494889,
 0.00000058,0.00354998,0.36727379,0.00000029,0.00083022,0.00000064,-0.0
 0000018,0.00442436,0.00000284,-0.00000185,-0.00178997,0.00000634,0.000
 00447,0.00063631,-0.00000267,-0.00000794,0.02405962,-0.00103370,0.0000
 0005,0.00104865,-0.00288670,-0.00000021,-0.00588064,0.00092584,0.00000
 021,0.00008909,-0.02165123,0.00000005,0.00704384,0.02090964,-0.0000006
 4,0.05603189,-0.00451518,0.00000193,0.00444870,-0.05686807,-0.00000105
 ,-0.00087538,0.01361399,0.00000194,0.01204866,-0.17771205,-0.00000215,
 -0.10008829,-0.34624903,0.00000339,-0.03258480,0.87513241,-0.00000147,
 0.00487283,-0.00000120,0.00000144,0.01156596,-0.00000196,0.00000117,-0
 .00329861,-0.00000353,-0.00000244,-0.06476537,0.00000156,0.00000577,-0
 .02961171,0.00000039,-0.00000310,0.13756710,0.00100597,0.00000048,-0.0
 0215233,-0.07052064,-0.00000064,0.03590201,-0.01494862,0.00000007,-0.0
 0918057,-0.06573829,0.00000043,-0.22496249,-0.02499253,-0.00000391,-0.
 06101446,-0.00928662,0.00000294,0.59454262,0.00054487,0.00000029,0.000
 68191,-0.05723621,-0.00000066,-0.05063947,-0.00207991,0.00000147,-0.00
 113820,0.02877105,-0.00000098,0.03864261,-0.01423639,0.00000145,0.0283
 7530,-0.17803021,-0.00000203,0.13633493,0.48619511,0.00000143,0.006483
 23,0.00000079,-0.00000191,0.01673795,-0.00000120,0.00000026,0.00652058
 ,-0.00000143,-0.00000133,0.02053688,-0.00000025,0.00000127,-0.00774801
 ,0.00000007,0.00000012,-0.07248421,0.00000034,0.00000114,0.10480160,0.
 00211398,0.00000044,-0.00552706,-0.01980169,-0.00000047,-0.06689691,-0
 .00596487,0.00000344,-0.00412927,-0.03315815,-0.00000334,-0.07911752,-
 0.00013562,0.00000024,0.00625658,0.10228714,-0.00000110,-0.30045705,-0
 .04682320,0.00000169,0.56019093,-0.00027745,-0.00000049,0.00042708,0.0
 1068660,0.00000041,-0.00359219,0.00067428,-0.00000559,-0.00005660,0.00
 181656,0.00000530,-0.00317150,-0.00041949,-0.00000191,0.00147133,-0.00
 761714,0.00000315,-0.00544072,-0.02195026,-0.00000252,0.02484380,0.296
 12771,0.00000013,-0.00145762,0.00000070,0.00000012,-0.00827306,-0.0000
 0017,-0.00000078,0.00232671,0.00000202,0.00000048,0.00301285,-0.000002
 09,-0.00000160,0.00222172,-0.00000011,0.00000155,0.00435014,-0.0000006
 4,0.00000020,-0.01264519,0.00000072,-0.00000016,0.01206179,-0.00075810
 ,0.00000032,0.00004465,0.02540673,-0.00000004,-0.00574697,0.00125532,0
 .00000402,0.00012639,-0.00228913,-0.00000413,-0.00687768,-0.00049148,0
 .00000125,0.00095791,-0.00583541,-0.00000204,0.00076003,-0.01080406,0.
 00000187,0.01689400,-0.20530025,-0.00000021,0.25243801,0.00617496,0.00
 000018,-0.03297962,-0.11520734,0.00000041,-0.01546587,-0.00668610,0.00
 000448,-0.00143574,-0.03007306,-0.00000488,0.01705589,-0.00030167,0.00
 000229,0.00647433,-0.11775473,-0.00000248,0.05358653,-0.24197804,0.000
 00154,-0.02336140,-0.27904079,0.00000005,0.19881639,0.78486677,-0.0000
 0102,-0.00467394,-0.00000139,0.00000149,-0.05161315,0.00000031,0.00000
 094,0.00454577,-0.00000244,-0.00000089,0.01339228,0.00000294,0.0000027
 7,0.00697745,0.00000020,-0.00000263,0.01180388,0.00000090,-0.00000088,
 -0.06220284,-0.00000162,0.00000181,-0.00159733,-0.00000104,-0.00000159
 ,0.08336787,0.00334758,-0.00000051,-0.00829125,-0.01180288,0.00000039,
 -0.32793109,0.00263189,-0.00000478,-0.00002671,0.07968660,0.00000402,-
 0.05828152,0.00275207,-0.00000410,-0.00453285,0.02988602,0.00000495,-0
 .03343776,-0.09462981,-0.00000188,-0.12721371,0.19081905,-0.00000023,-
 0.25859634,-0.20269051,0.00000214,0.81831122\\-0.00001615,0.,0.0000874
 9,0.00014023,0.,-0.00056893,-0.00001706,0.,0.00001418,-0.00015263,0.,0
 .00029044,-0.00003178,0.,-0.00002773,0.00033913,0.,-0.00022746,-0.0001
 6180,0.,-0.00005321,-0.00007337,0.,-0.00008981,-0.00002656,0.,0.000575
 04\\\@

 SIGN SEEN IN A RESTAURANT-
 WE RESERVE THE RIGHT TO SERVE REFUSE TO ANYONE.
 Job cpu time:  0 days  0 hours 25 minutes 10.2 seconds.
 File lengths (MBytes):  RWF=   20 Int=    0 D2E=    0 Chk=    3 Scr=    1
 Normal termination of Gaussian 98.
