 Gaussian 98, Revision A.7,
 Gaussian 98:  SGI64-G98RevA.7 11-Apr-1999

 ---------------------
 #B3LYP/6-31G opt freq
 ---------------------

 -------------------------------
 1H pyrazole C3H4N2 casno=288131
 -------------------------------
 Symbolic Z-matrix:
 Charge =  0 Multiplicity = 1

 SCF Done:  E(RB+HF-LYP) =  -226.047827126     A.U. after   14 cycles
 SCF Done:  E(RB+HF-LYP) =  -226.111372610     A.U. after   14 cycles
 SCF Done:  E(RB+HF-LYP) =  -226.126362548     A.U. after   14 cycles
 SCF Done:  E(RB+HF-LYP) =  -226.126717444     A.U. after   10 cycles
 SCF Done:  E(RB+HF-LYP) =  -226.126853465     A.U. after   11 cycles
 SCF Done:  E(RB+HF-LYP) =  -226.126866725     A.U. after    9 cycles
 SCF Done:  E(RB+HF-LYP) =  -226.126869544     A.U. after    8 cycles
 Optimization completed.
    -- Stationary point found.
 Normal termination of Gaussian 98.

 -----------------------------------------------
 #N Geom=AllCheck Guess=TCheck RB3LYP/6-31G Freq
 -----------------------------------------------

 1H pyrazole C3H4N2 casno=288131
 -------------------------------
 Redundant internal coordinates taken from checkpointfile:
 /tmp/Gau-210048.chk
 Charge =  0 Multiplicity = 1

                         Standard orientation:
 ---------------------------------------------------------------------
 Center     Atomic     Atomic              Coordinates (Angstroms)
 Number     Number      Type              X           Y           Z
 ---------------------------------------------------------------------
    1          1             0        2.115947    0.729462    0.000000
    2          6             0        1.121008    0.315169    0.000000
    3          1             0        1.276338   -1.889284    0.000000
    4          6             0        0.673105   -0.996411    0.000000
    5          1             0       -1.467270   -1.708899    0.000000
    6          6             0       -0.743938   -0.909742    0.000000
    7          7             0       -1.166790    0.369675    0.000000
    8          1             0       -0.058535    2.106321    0.000000
    9          7             0        0.000000    1.102940    0.000000
 ---------------------------------------------------------------------

 SCF Done:  E(RB+HF-LYP) =  -226.126869544     A.U. after    1 cycles

  The electronic state is 1-A'.
 Alpha  occ. eigenvalues --  -14.40353 -14.35253 -10.22649 -10.20212 -10.18170
 Alpha  occ. eigenvalues --   -1.04634  -0.82423  -0.78049  -0.61639  -0.59497
 Alpha  occ. eigenvalues --   -0.54656  -0.45002  -0.43169  -0.42954  -0.40544
 Alpha  occ. eigenvalues --   -0.27895  -0.26137  -0.24729
 Alpha virt. eigenvalues --    0.01394   0.07149   0.07837   0.12928   0.15347
 Alpha virt. eigenvalues --    0.16623   0.20548   0.22886   0.28540   0.39700
 Alpha virt. eigenvalues --    0.41719   0.54781   0.55628   0.59725   0.60382

  Exact polarizability:  45.572   2.001  47.318  -0.002  -0.002  15.178
 Approx polarizability:  76.893   0.823  78.581   0.000   0.000  19.288

                     1                      2                      3
                    A"                     A"                     A"
 Frequencies --   620.3503               654.6847               690.3541
 Red. masses --     2.8291                 1.9906                 1.8836
 Frc consts  --     0.6415                 0.5027                 0.5289
 IR Inten    --    63.6485                13.4784                60.2515
 Raman Activ --     0.0000                 0.0000                 0.0000

                     4                      5                      6
                    A"                     A"                     A"
 Frequencies --   778.9371               874.0663               927.2699
 Red. masses --     1.2181                 1.2484                 1.3793
 Frc consts  --     0.4355                 0.5619                 0.6987
 IR Inten    --    81.6959                12.6620                 0.9995
 Raman Activ --     0.0000                 0.0000                 0.0000

                     7                      8                      9
                    A'                     A'                     A'
 Frequencies --   941.0308               951.6385              1018.3510
 Red. masses --     5.5933                 4.9257                 2.4418
 Frc consts  --     2.9183                 2.6282                 1.4920
 IR Inten    --    11.8260                 8.2740                27.4561
 Raman Activ --     0.0000                 0.0000                 0.0000

                    10                     11                     12
                    A'                     A'                     A'
 Frequencies --  1080.8011              1151.7960              1169.6797
 Red. masses --     1.4796                 2.1709                 1.9021
 Frc consts  --     1.0183                 1.6968                 1.5333
 IR Inten    --     5.7695                18.5115                 1.1334
 Raman Activ --     0.0000                 0.0000                 0.0000

                    13                     14                     15
                    A'                     A'                     A'
 Frequencies --  1282.8107              1389.5508              1430.5992
 Red. masses --     2.3079                 2.0298                 2.7179
 Frc consts  --     2.2377                 2.3092                 3.2774
 IR Inten    --     2.0973                 5.2325                 8.4663
 Raman Activ --     0.0000                 0.0000                 0.0000

                    16                     17                     18
                    A'                     A'                     A'
 Frequencies --  1477.1481              1572.2901              3293.9807
 Red. masses --     2.3538                 2.6010                 1.0910
 Frc consts  --     3.0260                 3.7884                 6.9745
 IR Inten    --    11.1214                12.1731                 1.8940
 Raman Activ --     0.0000                 0.0000                 0.0000

                    19                     20                     21
                    A'                     A'                     A'
 Frequencies --  3304.6272              3321.5006              3716.5288
 Red. masses --     1.0966                 1.1085                 1.0822
 Frc consts  --     7.0560                 7.2051                 8.8070
 IR Inten    --     4.5234                 0.7949                70.3077
 Raman Activ --     0.0000                 0.0000                 0.0000

 - Thermochemistry -
 -------------------
 Temperature   298.150 Kelvin.  Pressure   1.00000 Atm.
 Atom  1 has atomic number  1 and mass   1.00783

 Molecular mass:    68.03745 amu.
 Principal axes and moments of inertia in atomic units:
                           1         2         3
     EIGENVALUES --   191.02915 194.73041 385.75956
           X            0.98464   0.17462   0.00000
           Y           -0.17462   0.98464   0.00000
           Z            0.00000   0.00000   1.00000
 THIS MOLECULE IS AN ASYMMETRIC TOP.
 ROTATIONAL SYMMETRY NUMBER  1.
 ROTATIONAL TEMPERATURES (KELVIN)      0.45340     0.44479     0.22453
 ROTATIONAL CONSTANTS (GHZ)            9.44746     9.26790     4.67841
 Zero-point vibrational energy     189297.1 (Joules/Mol)
                                   45.24309 (Kcal/Mol)
 WARNING-- EXPLICIT CONSIDERATION OF   1 DEGREES OF FREEDOM AS
           VIBRATIONS MAY CAUSE SIGNIFICANT ERROR
 VIBRATIONAL TEMPERATURES:    892.54   941.94   993.26  1120.71  1257.58
          (KELVIN)           1334.13  1353.93  1369.19  1465.17  1555.02
                             1657.17  1682.90  1845.67  1999.24  2058.30
                             2125.27  2262.16  4739.28  4754.59  4778.87
                             5347.23

 Zero-point correction=                           0.072099 (Hartree/Particle)
 Thermal correction to Energy=                    0.075749
 Thermal correction to Enthalpy=                  0.076693
 Thermal correction to Gibbs Free Energy=         0.045848
 Sum of electronic and zero-point Energies=           -226.054770
 Sum of electronic and thermal Energies=              -226.051120
 Sum of electronic and thermal Enthalpies=            -226.050176
 Sum of electronic and thermal Free Energies=         -226.081022

                     E (Thermal)             CV                S
                      KCAL/MOL        CAL/MOL-KELVIN    CAL/MOL-KELVIN
 TOTAL                   47.533             12.902             64.920
 ELECTRONIC               0.000              0.000              0.000
 TRANSLATIONAL            0.889              2.981             38.570
 ROTATIONAL               0.889              2.981             24.177
 VIBRATIONAL             45.756              6.941              2.173
 VIBRATION  1             0.980              0.989              0.416
                       Q            LOG10(Q)             LN(Q)
 TOTAL BOT       0.815760D-21        -21.088438        -48.557922
 TOTAL V=0       0.118790D+13         12.074782         27.803212
 VIB (BOT)       0.862394D-33        -33.064294        -76.133352
 VIB (BOT)  1    0.235654D+00         -0.627726         -1.445392
 VIB (V=0)       0.125581D+01          0.098925          0.227783
 VIB (V=0)  1    0.105275D+01          0.022325          0.051406
 ELECTRONIC      0.100000D+01          0.000000          0.000000
 TRANSLATIONAL   0.220588D+08          7.343582         16.909224
 ROTATIONAL      0.428819D+05          4.632274         10.666206
 ***** Axes restored to original set *****
 -------------------------------------------------------------------
 Center     Atomic                   Forces (Hartrees/Bohr)
 Number     Number              X              Y              Z
 -------------------------------------------------------------------
    1          1           0.000019908    0.000000000   -0.000067116
    2          6          -0.000061862    0.000000000    0.000582076
    3          1          -0.000015163    0.000000000   -0.000039677
    4          6           0.000263765    0.000000000   -0.000207083
    5          1           0.000024005    0.000000000   -0.000002640
    6          6          -0.000280860    0.000000000    0.000019502
    7          7          -0.000052119    0.000000000    0.000080575
    8          1           0.000013317    0.000000000    0.000046280
    9          7           0.000089009    0.000000000   -0.000411917
 -------------------------------------------------------------------
 Cartesian Forces:  Max     0.000582076 RMS     0.000164516

 GradGradGradGradGradGradGradGradGradGradGradGradGradGradGradGradGradGrad
 Berny optimization.
 Internal  Forces:  Max     0.000316284 RMS     0.000079344
 Search for a local minimum.
 Step number   1 out of a maximum of  48
 All quantities printed in internal units (Hartrees-Bohrs-Radians)
 Second derivative matrix not updated -- analytic derivatives used.
     Eigenvalues ---    0.00974   0.01299   0.01760   0.02878   0.06063
     Eigenvalues ---    0.06409   0.09858   0.10821   0.11330   0.12228
     Eigenvalues ---    0.21919   0.26447   0.32590   0.36989   0.38343
     Eigenvalues ---    0.38475   0.39129   0.42890   0.48706   0.49603
     Eigenvalues ---    0.557811000.000001000.000001000.000001000.00000
     Eigenvalues --- 1000.000001000.000001000.000001000.000001000.00000
     Eigenvalues --- 1000.000001000.000001000.000001000.000001000.00000
     Eigenvalues --- 1000.000001000.000001000.00000
 Angle between quadratic step and forces=  27.25 degrees.
 Linear search not attempted -- first point.
 Iteration  1 RMS(Cart)=  0.00025188 RMS(Int)=  0.00000008
 Iteration  2 RMS(Cart)=  0.00000009 RMS(Int)=  0.00000002
 Variable       Old X    -DE/DX   Delta X   Delta X   Delta X     New X
                                 (Linear)    (Quad)   (Total)
    R1        2.03665   0.00001   0.00000   0.00006   0.00006   2.03671
    R2        2.61907   0.00013   0.00000   0.00053   0.00053   2.61960
    R3        2.58916  -0.00032   0.00000  -0.00104  -0.00104   2.58812
    R4        2.03627   0.00003   0.00000   0.00005   0.00005   2.03632
    R5        2.68283  -0.00007   0.00000  -0.00017  -0.00017   2.68266
    R6        2.03693   0.00002   0.00000   0.00009   0.00009   2.03702
    R7        2.54638  -0.00001   0.00000   0.00002   0.00002   2.54640
    R8        2.60417  -0.00011   0.00000  -0.00006  -0.00006   2.60412
    R9        1.89934   0.00002   0.00000   0.00005   0.00005   1.89939
    A1        2.29444  -0.00011   0.00000  -0.00095  -0.00095   2.29349
    A2        2.13447   0.00002   0.00000   0.00059   0.00059   2.13506
    A3        1.85427   0.00009   0.00000   0.00036   0.00036   1.85464
    A4        2.21834   0.00006   0.00000  -0.00004  -0.00004   2.21830
    A5        1.83879  -0.00018   0.00000  -0.00064  -0.00064   1.83815
    A6        2.22605   0.00012   0.00000   0.00069   0.00069   2.22674
    A7        2.24535  -0.00006   0.00000  -0.00025  -0.00025   2.24510
    A8        1.95108   0.00010   0.00000   0.00041   0.00041   1.95149
    A9        2.08675  -0.00004   0.00000  -0.00016  -0.00016   2.08659
   A10        1.81267  -0.00007   0.00000  -0.00032  -0.00032   1.81235
   A11        1.96796   0.00007   0.00000   0.00019   0.00019   1.96815
   A12        2.24163   0.00001   0.00000   0.00025   0.00025   2.24188
   A13        2.07360  -0.00008   0.00000  -0.00044  -0.00044   2.07315
    D1        0.00000   0.00000   0.00000   0.00000   0.00000   0.00000
    D2        3.14159   0.00000   0.00000   0.00000   0.00000   3.14159
    D3        3.14159   0.00000   0.00000   0.00000   0.00000   3.14159
    D4        0.00000   0.00000   0.00000   0.00000   0.00000   0.00000
    D5        3.14159   0.00000   0.00000   0.00000   0.00000   3.14159
    D6        0.00000   0.00000   0.00000   0.00000   0.00000   0.00000
    D7        0.00000   0.00000   0.00000   0.00000   0.00000   0.00000
    D8        3.14159   0.00000   0.00000   0.00000   0.00000   3.14159
    D9        3.14159   0.00000   0.00000   0.00000   0.00000   3.14159
   D10        0.00000   0.00000   0.00000   0.00000   0.00000   0.00000
   D11        0.00000   0.00000   0.00000   0.00000   0.00000   0.00000
   D12        3.14159   0.00000   0.00000   0.00000   0.00000   3.14159
   D13        0.00000   0.00000   0.00000   0.00000   0.00000   0.00000
   D14        3.14159   0.00000   0.00000   0.00000   0.00000   3.14159
   D15        0.00000   0.00000   0.00000   0.00000   0.00000   0.00000
   D16        3.14159   0.00000   0.00000   0.00000   0.00000   3.14159
         Item               Value     Threshold  Converged?
 Maximum Force            0.000316     0.000450     YES
 RMS     Force            0.000079     0.000300     YES
 Maximum Displacement     0.000787     0.001800     YES
 RMS     Displacement     0.000252     0.001200     YES
 Predicted change in Energy=-4.520272D-07
 Optimization completed.
    -- Stationary point found.
                         ----------------------------
                         !   Optimized Parameters   !
                         ! (Angstroms and Degrees)  !
 ------------------------                            -------------------------
 ! Name  Definition              Value          Derivative Info.             !
 -----------------------------------------------------------------------------
 ! R1    R(1,2)                  1.0777         -DE/DX =    0.               !
 ! R2    R(2,4)                  1.386          -DE/DX =    0.0001           !
 ! R3    R(2,9)                  1.3701         -DE/DX =   -0.0003           !
 ! R4    R(3,4)                  1.0775         -DE/DX =    0.               !
 ! R5    R(4,6)                  1.4197         -DE/DX =   -0.0001           !
 ! R6    R(5,6)                  1.0779         -DE/DX =    0.               !
 ! R7    R(6,7)                  1.3475         -DE/DX =    0.               !
 ! R8    R(7,9)                  1.3781         -DE/DX =   -0.0001           !
 ! R9    R(8,9)                  1.0051         -DE/DX =    0.               !
 ! A1    A(1,2,4)              131.4618         -DE/DX =   -0.0001           !
 ! A2    A(1,2,9)              122.2961         -DE/DX =    0.               !
 ! A3    A(4,2,9)              106.242          -DE/DX =    0.0001           !
 ! A4    A(2,4,3)              127.1017         -DE/DX =    0.0001           !
 ! A5    A(2,4,6)              105.355          -DE/DX =   -0.0002           !
 ! A6    A(3,4,6)              127.5433         -DE/DX =    0.0001           !
 ! A7    A(4,6,5)              128.6489         -DE/DX =   -0.0001           !
 ! A8    A(4,6,7)              111.7889         -DE/DX =    0.0001           !
 ! A9    A(5,6,7)              119.5622         -DE/DX =    0.               !
 ! A10   A(6,7,9)              103.8582         -DE/DX =   -0.0001           !
 ! A11   A(2,9,7)              112.7559         -DE/DX =    0.0001           !
 ! A12   A(2,9,8)              128.4357         -DE/DX =    0.               !
 ! A13   A(7,9,8)              118.8084         -DE/DX =   -0.0001           !
 ! D1    D(1,2,4,3)              0.             -DE/DX =    0.               !
 ! D2    D(1,2,4,6)            180.             -DE/DX =    0.               !
 ! D3    D(9,2,4,3)            180.             -DE/DX =    0.               !
 ! D4    D(9,2,4,6)              0.             -DE/DX =    0.               !
 ! D5    D(1,2,9,7)            180.             -DE/DX =    0.               !
 ! D6    D(1,2,9,8)              0.             -DE/DX =    0.               !
 ! D7    D(4,2,9,7)              0.             -DE/DX =    0.               !
 ! D8    D(4,2,9,8)            180.             -DE/DX =    0.               !
 ! D9    D(2,4,6,5)            180.             -DE/DX =    0.               !
 ! D10   D(2,4,6,7)              0.             -DE/DX =    0.               !
 ! D11   D(3,4,6,5)              0.             -DE/DX =    0.               !
 ! D12   D(3,4,6,7)            180.             -DE/DX =    0.               !
 ! D13   D(4,6,7,9)              0.             -DE/DX =    0.               !
 ! D14   D(5,6,7,9)            180.             -DE/DX =    0.               !
 ! D15   D(6,7,9,2)              0.             -DE/DX =    0.               !
 ! D16   D(6,7,9,8)            180.             -DE/DX =    0.               !
 -----------------------------------------------------------------------------
 GradGradGradGradGradGradGradGradGradGradGradGradGradGradGradGradGradGrad

 1\1\ NATIONAL INSTITUTE OF STANDARDS AND TECHNOLOGY-NEVA\Freq\RB3LYP\6
 -31G\C3H4N2\RDJ3\06-Apr-2000\0\\#N GEOM=ALLCHECK GUESS=TCHECK RB3LYP/6
 -31G FREQ\\1H pyrazole C3H4N2 casno=288131\\0,1\H,-1.8925235299,0.,-1.
 1948636437\C,-0.9470110981,0.,-0.677613812\H,0.675979277,0.,-2.1774948
 46\C,0.3565362036,0.,-1.1483847354\H,2.2510922394,0.,0.0761559005\C,1.
 1751345559,0.,0.01153668\N,0.4412592229,0.,1.1416434119\H,-1.606954243
 8,0.,1.3629796905\N,-0.8606237531,0.,0.689784317\\Version=SGI64-G98Rev
 A.7\State=1-A'\HF=-226.1268695\RMSD=2.576e-09\RMSF=1.645e-04\Dipole=-0
 .8160218,0.,-0.5252515\DipoleDeriv=-0.0067435,-0.0000119,-0.0508575,-0
 .0000133,0.1912789,0.0000089,-0.0430282,-0.0000108,0.0715422,0.1428785
 ,-0.0000064,-0.112262,0.0000459,-0.0626549,-0.0000494,-0.3071185,0.000
 0959,0.2074525,0.0926482,0.0000003,0.0320951,-0.0000096,0.1678293,0.00
 00071,0.0374896,0.0000169,-0.0390252,-0.2689336,-0.000037,-0.0075583,0
 .0000165,-0.197975,0.0000124,-0.0531439,-0.0001087,0.0041084,-0.045554
 7,0.0001028,-0.0161147,-0.0000338,0.1516017,0.0000439,-0.0169722,0.000
 0102,0.0857674,0.2139626,0.0000515,0.1060028,0.0000864,-0.0785954,-0.0
 001699,0.1989361,-0.0000849,0.1273845,0.0581812,-0.0001414,-0.1925578,
 -0.0001488,-0.2202907,0.0002141,-0.0463355,0.0001336,-0.4902347,0.2095
 102,0.0000264,-0.0218352,0.0000086,0.3772919,-0.0000357,-0.0266248,-0.
 0000313,0.2174799,-0.3959486,0.0000157,0.2630875,0.0000482,-0.3284856,
 -0.0000313,0.2567973,-0.0000208,-0.1844745\Polar=48.5880945,0.0026189,
 15.1779525,-0.4163568,0.000416,44.3022435\PG=CS [SG(C3H4N2)]\NImag=0\\
 0.30647240,-0.00000059,0.02152509,0.14000168,-0.00000037,0.13008539,-0
 .30283966,0.00000006,-0.12375997,0.86973177,0.00000058,-0.02780391,0.0
 0000045,0.00000046,0.12736891,-0.13245665,0.00000100,-0.12665787,0.108
 24966,-0.00000239,0.63517444,0.00030237,-0.00000004,-0.00089747,0.0013
 2328,0.00000008,0.02797216,0.08056387,-0.00000011,-0.00295793,-0.00000
 006,-0.00000072,-0.00069461,0.00000045,0.00000026,0.02365304,0.0006303
 2,0.00000027,-0.00008302,-0.00496156,-0.00000043,0.00009176,-0.0951288
 3,-0.00000074,0.35350798,-0.00696458,0.00000017,0.01120655,-0.34325368
 ,0.00000049,0.07311525,-0.08646589,0.00000016,0.08968519,0.62460950,-0
 .00000072,0.00182241,-0.00000046,0.00000110,-0.06862318,0.00000060,-0.
 00000054,-0.02980283,0.00000166,0.00000072,0.12777681,-0.01632679,-0.0
 0000115,0.01281540,0.09572063,0.00000280,-0.14275233,0.08684875,-0.000
 00075,-0.34196265,-0.12496756,0.00000007,0.84073898,-0.00024977,0.0000
 0098,0.00022627,0.00006410,-0.00000218,-0.00053420,-0.00009950,0.00000
 066,-0.00066103,-0.00420506,-0.00000034,0.00508755,0.38210367,0.000000
 07,0.00070538,0.00000002,-0.00000112,0.00465810,0.00000047,0.00000053,
 -0.00190939,-0.00000168,-0.00000117,0.00125428,-0.00000128,0.00000146,
 0.02536018,-0.00096035,0.00000005,0.00098904,-0.00298040,0.00000002,-0
 .00579478,0.00094962,0.00000005,0.00020054,-0.02336730,-0.00000013,0.0
 0673266,0.01850655,0.00000005,0.05759545,-0.00358122,0.00000007,0.0048
 5969,-0.06176678,0.00000025,-0.00492843,0.01275379,0.00000004,0.013167
 09,-0.17887508,-0.00000089,-0.09724183,-0.36488748,0.00000048,-0.02977
 630,0.89240987,0.00000136,0.00554061,0.00000103,0.00000334,0.01213924,
 -0.00000389,-0.00000030,-0.00187705,0.00000115,-0.00000028,-0.07034363
 ,0.00000619,-0.00000399,-0.03242711,0.00000006,-0.00000007,0.14434758,
 0.00082775,-0.00000033,-0.00233005,-0.06671537,-0.00000147,0.03344525,
 -0.01776527,0.00000037,-0.00963585,-0.06794975,0.00000017,-0.22577621,
 -0.02126935,0.00000187,-0.06066011,-0.00342887,-0.00000518,0.58100003,
 0.00092888,-0.00000149,0.00114321,-0.05736148,0.00000307,-0.04924174,-
 0.00228468,-0.00000132,-0.00085515,0.02275235,0.00000020,0.03302297,-0
 .01290726,-0.00000098,0.02962866,-0.17024364,0.00000626,0.13892692,0.4
 4204395,-0.00000188,0.00580424,-0.00000182,-0.00000522,0.01817911,0.00
 000654,-0.00000110,0.00620196,0.00000276,0.00000319,0.02157966,-0.0000
 1046,0.00000475,-0.00690575,0.00000015,0.00000183,-0.07249812,0.000001
 56,-0.00001107,0.10263761,0.00301814,0.00000083,-0.00443078,-0.0231161
 5,0.00000003,-0.07147040,-0.00579730,0.,-0.00264903,-0.03178611,-0.000
 00098,-0.08281881,-0.00330544,0.00000052,0.00483258,0.09044161,-0.0000
 0023,-0.27880128,-0.05823714,0.00000497,0.53064047,-0.00022165,0.00000
 060,0.00054292,0.01025918,-0.00000105,-0.00757673,0.00065994,0.0000005
 9,-0.00005344,0.00190895,0.00000038,-0.00367340,-0.00035492,-0.0000001
 9,0.00137449,-0.00695397,-0.00000305,-0.00548203,-0.01939569,0.0000066
 5,0.02641475,0.30069255,-0.00000039,-0.00143708,-0.00000006,0.00000229
 ,-0.00569527,0.00000077,0.00000002,0.00195880,0.00000050,-0.00000137,0
 .00360338,0.00000081,0.00000053,0.00180499,-0.00000009,-0.00000093,0.0
 0456376,-0.00000004,0.00000071,-0.00982656,-0.00000129,-0.00000118,0.0
 1544648,-0.00072201,-0.00000059,0.00002470,0.02719684,0.00000109,-0.00
 571534,0.00121207,-0.00000067,0.00006724,-0.00239663,-0.00000022,-0.00
 665536,-0.00050149,0.00000009,0.00101223,-0.00703906,0.00000275,0.0005
 1759,-0.01373212,-0.00000532,0.01467739,-0.20984698,0.00000069,0.25880
 829,0.00615323,0.00000025,-0.03332290,-0.11615672,-0.00000170,-0.01459
 933,-0.00675319,0.00000044,-0.00182259,-0.02950653,0.00000010,0.021529
 68,0.00053621,0.00000092,0.00662503,-0.11885549,-0.00000327,0.04285599
 ,-0.20353243,0.00000285,0.00236763,-0.28659439,0.00000033,0.20582939,0
 .75470931,0.00000168,-0.00319881,0.00000127,-0.00000018,-0.05952838,-0
 .00000353,0.00000108,0.00542802,-0.00000350,-0.00000191,0.01273309,0.0
 0000378,-0.00000186,0.00745931,-0.00000016,-0.00000080,0.01055472,0.00
 000306,0.00000465,-0.06517216,-0.00000386,-0.00000277,-0.01041850,0.00
 000217,0.00000011,0.10214270,0.00598791,0.00000028,-0.01041280,-0.0096
 3368,-0.00000010,-0.31632076,0.00260628,0.00000135,0.00046303,0.076460
 37,-0.00000071,-0.06032168,0.00245113,-0.00000006,-0.00490762,0.033946
 10,-0.00000187,-0.03775939,-0.08065561,0.00000162,-0.10998013,0.198300
 41,-0.00000128,-0.26273673,-0.22946290,0.00000075,0.80197607\\-0.00001
 991,0.,0.00006712,0.00006186,0.,-0.00058208,0.00001516,0.,0.00003968,-
 0.00026377,0.,0.00020708,-0.00002401,0.,0.00000264,0.00028086,0.,-0.00
 001950,0.00005212,0.,-0.00008057,-0.00001332,0.,-0.00004628,-0.0000890
 1,0.,0.00041192\\\@

            ARSENIC

 FOR SMELTER FUMES HAVE I BEEN NAMED,
    I AM AN EVIL POISONOUS SMOKE...
 BUT WHEN FROM POISON I AM FREED,
    THROUGH ART AND SLEIGHT OF HAND,
 THEN CAN I CURE BOTH MAN AND BEAST,
    FROM DIRE DISEASE OFTTIMES DIRECT THEM;
 BUT PREPARE ME CORRECTLY, AND TAKE GREAT CARE
    THAT YOU FAITHFULLY KEEP WATCHFUL GUARD OVER ME;
 FOR ELSE I AM POISON, AND POISON REMAIN,
    THAT PIERCES THE HEART OF MANY A ONE.

 ATTRIBUTED TO THE PROBABLY MYTHICAL 15TH
 CENTURY MONK, BASILIUS VALENTINUS
 Job cpu time:  0 days  0 hours  3 minutes  6.9 seconds.
 File lengths (MBytes):  RWF=   10 Int=    0 D2E=    0 Chk=    4 Scr=    1
 Normal termination of Gaussian 98.
