 Gaussian 98, Revision A.6,
 Gaussian 98:  SGI-G98RevA.6 19-Oct-1998

 -----------------------
 #BLYP/6-31+G** opt freq
 -----------------------

 --------------------------------
 1H imidazole C3H4N2 casno=288324
 --------------------------------
 Symbolic Z-matrix:
 Charge =  0 Multiplicity = 1

 SCF Done:  E(RB-LYP) =  -226.077902752     A.U. after   13 cycles
 SCF Done:  E(RB-LYP) =  -226.141410296     A.U. after   12 cycles
 SCF Done:  E(RB-LYP) =  -226.155832388     A.U. after   12 cycles
 SCF Done:  E(RB-LYP) =  -226.156182301     A.U. after   11 cycles
 SCF Done:  E(RB-LYP) =  -226.156303528     A.U. after    9 cycles
 SCF Done:  E(RB-LYP) =  -226.156315679     A.U. after    9 cycles
 Optimization completed.
    -- Stationary point found.
 Normal termination of Gaussian 98.

 ----------------------------------------------------
 #N Geom=AllCheck Guess=TCheck RBLYP/6-31+G(d,p) Freq
 ----------------------------------------------------

 1H imidazole C3H4N2 casno=288324
 --------------------------------
 Redundant internal coordinates taken from checkpointfile:
 /wrk/Gau-6946430.chk
 Charge =  0 Multiplicity = 1

                         Standard orientation:
 ---------------------------------------------------------------------
 Center     Atomic     Atomic              Coordinates (Angstroms)
 Number     Number      Type              X           Y           Z
 ---------------------------------------------------------------------
    1          7             0       -0.748117   -0.997192    0.000000
    2          1             0       -0.008145    2.134424    0.000000
    3          6             0        1.131675    0.303493    0.000000
    4          1             0        2.136817    0.714256    0.000000
    5          6             0        0.642533   -0.993412    0.000000
    6          1             0        1.208794   -1.921727    0.000000
    7          1             0       -2.122307    0.665923    0.000000
    8          6             0       -1.103932    0.284673    0.000000
    9          7             0        0.000000    1.116992    0.000000
 ---------------------------------------------------------------------

 SCF Done:  E(RB-LYP) =  -226.156315679     A.U. after    1 cycles

  The electronic state is 1-A'.
 Alpha  occ. eigenvalues --  -14.09726 -14.01791  -9.98518  -9.96436  -9.94584
 Alpha  occ. eigenvalues --   -0.91892  -0.78695  -0.66820  -0.55486  -0.52842
 Alpha  occ. eigenvalues --   -0.50324  -0.39198  -0.38985  -0.37718  -0.36009
 Alpha  occ. eigenvalues --   -0.24776  -0.22597  -0.20238
 Alpha virt. eigenvalues --   -0.02150  -0.01723   0.01133   0.01665   0.02182
 Alpha virt. eigenvalues --    0.03621   0.04748   0.04912   0.06354   0.08365
 Alpha virt. eigenvalues --    0.09822   0.09931   0.10467   0.13363   0.14987

  Exact polarizability:  58.131   0.390  55.978   0.060   0.108  32.746
 Approx polarizability: 106.905   4.332 110.212   0.000   0.000  50.309

                     1                      2                      3
                    A"                     A"                     A"
 Frequencies --   493.0677               617.2840               654.0965
 Red. masses --     1.6020                 2.3024                 3.0248
 Frc consts  --     0.2295                 0.5169                 0.7625
 IR Inten    --    86.0441                13.3858                 3.2327
 Raman Activ --     0.0000                 0.0000                 0.0000

                     4                      5                      6
                    A"                     A"                     A"
 Frequencies --   685.6949               757.1361               821.2592
 Red. masses --     1.2229                 1.3178                 1.3038
 Frc consts  --     0.3388                 0.4451                 0.5181
 IR Inten    --    31.1406                53.9889                 8.9394
 Raman Activ --     0.0000                 0.0000                 0.0000

                     7                      8                      9
                    A'                     A'                     A'
 Frequencies --   871.8981               909.2642              1038.5565
 Red. masses --     5.4940                 4.5585                 1.6838
 Frc consts  --     2.4608                 2.2205                 1.0701
 IR Inten    --     7.3883                 2.1717                35.5857
 Raman Activ --     0.0000                 0.0000                 0.0000

                    10                     11                     12
                    A'                     A'                     A'
 Frequencies --  1058.0919              1110.8407              1118.1430
 Red. masses --     1.6169                 1.3794                 6.7689
 Frc consts  --     1.0666                 1.0029                 4.9861
 IR Inten    --    20.5386                 4.5685                 4.0375
 Raman Activ --     0.0000                 0.0000                 0.0000

                    13                     14                     15
                    A'                     A'                     A'
 Frequencies --  1242.5949              1315.1269              1375.7534
 Red. masses --     1.3934                 3.2707                 2.7425
 Frc consts  --     1.2676                 3.3329                 3.0583
 IR Inten    --     0.4540                 5.9805                15.0309
 Raman Activ --     0.0000                 0.0000                 0.0000

                    16                     17                     18
                    A'                     A'                     A'
 Frequencies --  1443.1491              1498.2648              3181.1350
 Red. masses --     2.9180                 3.0013                 1.0911
 Frc consts  --     3.5807                 3.9696                 6.5052
 IR Inten    --    20.7189                 8.8315                 4.7689
 Raman Activ --     0.0000                 0.0000                 0.0000

                    19                     20                     21
                    A'                     A'                     A'
 Frequencies --  3188.9842              3209.0483              3546.7660
 Red. masses --     1.0953                 1.1030                 1.0812
 Frc consts  --     6.5627                 6.6921                 8.0135
 IR Inten    --     1.7884                 2.5066                34.1451
 Raman Activ --     0.0000                 0.0000                 0.0000

 - Thermochemistry -
 -------------------
 Temperature   298.150 Kelvin.  Pressure   1.00000 Atm.
 Atom  1 has atomic number  7 and mass  14.00307

 Molecular mass:    68.03745 amu.
 Principal axes and moments of inertia in atomic units:
                           1         2         3
     EIGENVALUES --   188.97712 196.44677 385.42389
           X            0.46745   0.88402   0.00000
           Y            0.88402  -0.46745   0.00000
           Z            0.00000   0.00000   1.00000
 THIS MOLECULE IS AN ASYMMETRIC TOP.
 ROTATIONAL SYMMETRY NUMBER  1.
 ROTATIONAL TEMPERATURES (KELVIN)      0.45833     0.44090     0.22472
 ROTATIONAL CONSTANTS (GHZ)            9.55005     9.18692     4.68248
 Zero-point vibrational energy     180254.3 (Joules/Mol)
                                   43.08180 (Kcal/Mol)
 WARNING-- EXPLICIT CONSIDERATION OF   2 DEGREES OF FREEDOM AS
           VIBRATIONS MAY CAUSE SIGNIFICANT ERROR
 VIBRATIONAL TEMPERATURES:    709.41   888.13   941.09   986.56  1089.34
          (KELVIN)           1181.60  1254.46  1308.22  1494.24  1522.35
                             1598.24  1608.75  1787.81  1892.16  1979.39
                             2076.36  2155.66  4576.92  4588.21  4617.08
                             5102.98

 Zero-point correction=                           0.068655 (Hartree/Particle)
 Thermal correction to Energy=                    0.072547
 Thermal correction to Enthalpy=                  0.073492
 Thermal correction to Gibbs Free Energy=         0.042306
 Sum of electronic and zero-point Energies=           -226.087660
 Sum of electronic and thermal Energies=              -226.083768
 Sum of electronic and thermal Enthalpies=            -226.082824
 Sum of electronic and thermal Free Energies=         -226.114009

                     E (Thermal)             CV                S
                      KCAL/MOL        CAL/MOL-KELVIN    CAL/MOL-KELVIN
 TOTAL                   45.524             14.158             65.635
 ELECTRONIC               0.000              0.000              0.000
 TRANSLATIONAL            0.889              2.981             38.570
 ROTATIONAL               0.889              2.981             24.174
 VIBRATIONAL             43.747              8.196              2.891
 VIBRATION  1             0.849              1.265              0.676
 VIBRATION  2             0.977              0.995              0.421
                       Q            LOG10(Q)             LN(Q)
 TOTAL BOT       0.347172D-19        -19.459455        -44.807052
 TOTAL V=0       0.131686D+13         12.119541         27.906273
 VIB (BOT)       0.367550D-31        -31.434684        -72.381034
 VIB (BOT)  1    0.335375D+00         -0.474469         -1.092506
 VIB (BOT)  2    0.237590D+00         -0.624171         -1.437207
 VIB (V=0)       0.139416D+01          0.144312          0.332291
 VIB (V=0)  1    0.110206D+01          0.042205          0.097181
 VIB (V=0)  2    0.105358D+01          0.022667          0.052193
 ELECTRONIC      0.100000D+01          0.000000          0.000000
 TRANSLATIONAL   0.220588D+08          7.343582         16.909224
 ROTATIONAL      0.428199D+05          4.631646         10.664758
 ***** Axes restored to original set *****
 -------------------------------------------------------------------
 Center     Atomic                   Forces (Hartrees/Bohr)
 Number     Number              X              Y              Z
 -------------------------------------------------------------------
    1          7           0.000399374    0.000000000    0.000123617
    2          1          -0.000023131    0.000000000   -0.000011451
    3          6           0.000344085    0.000000000   -0.000156500
    4          1          -0.000079659    0.000000000   -0.000033907
    5          6          -0.000360455    0.000000000   -0.000102101
    6          1           0.000003307    0.000000000    0.000092534
    7          1           0.000118378    0.000000000   -0.000022513
    8          6          -0.000488732    0.000000000   -0.000218357
    9          7           0.000086834    0.000000000    0.000328679
 -------------------------------------------------------------------
 Cartesian Forces:  Max     0.000488732 RMS     0.000181698

 GradGradGradGradGradGradGradGradGradGradGradGradGradGradGradGradGradGrad
 Berny optimization.
 Internal  Forces:  Max     0.000304967 RMS     0.000092366
 Search for a local minimum.
 Step number   1 out of a maximum of  48
 All quantities printed in internal units (Hartrees-Bohrs-Radians)
 Second derivative matrix not updated -- analytic derivatives used.
     Eigenvalues ---    0.00468   0.00977   0.01784   0.02513   0.05487
     Eigenvalues ---    0.05773   0.09278   0.09894   0.10462   0.11215
     Eigenvalues ---    0.21608   0.22826   0.31426   0.35334   0.35740
     Eigenvalues ---    0.36053   0.37620   0.41202   0.43183   0.45101
     Eigenvalues ---    0.526711000.000001000.000001000.000001000.00000
     Eigenvalues --- 1000.000001000.000001000.000001000.000001000.00000
     Eigenvalues --- 1000.000001000.000001000.000001000.000001000.00000
     Eigenvalues --- 1000.000001000.000001000.00000
 Angle between quadratic step and forces=  24.28 degrees.
 Linear search not attempted -- first point.
 Iteration  1 RMS(Cart)=  0.00028209 RMS(Int)=  0.00000008
 Iteration  2 RMS(Cart)=  0.00000008 RMS(Int)=  0.00000001
 Variable       Old X    -DE/DX   Delta X   Delta X   Delta X     New X
                                 (Linear)    (Quad)   (Total)
    R1        2.62796   0.00028   0.00000   0.00112   0.00112   2.62908
    R2        2.51396  -0.00003   0.00000  -0.00006  -0.00006   2.51391
    R3        1.92273   0.00001   0.00000   0.00001   0.00001   1.92274
    R4        2.05193   0.00008   0.00000   0.00024   0.00024   2.05217
    R5        2.61931   0.00006   0.00000   0.00009   0.00009   2.61941
    R6        2.63376  -0.00020   0.00000  -0.00053  -0.00053   2.63323
    R7        2.05487   0.00006   0.00000   0.00013   0.00013   2.05500
    R8        2.05489   0.00012   0.00000   0.00038   0.00038   2.05527
    R9        2.61262  -0.00030   0.00000  -0.00095  -0.00095   2.61168
    A1        1.83884  -0.00014   0.00000  -0.00050  -0.00050   1.83834
    A2        2.31941  -0.00003   0.00000  -0.00036  -0.00036   2.31905
    A3        2.13038   0.00000   0.00000   0.00019   0.00019   2.13057
    A4        1.83339   0.00003   0.00000   0.00017   0.00016   1.83356
    A5        1.93418  -0.00010   0.00000  -0.00034  -0.00034   1.93383
    A6        2.11581  -0.00002   0.00000  -0.00061  -0.00061   2.11520
    A7        2.23320   0.00012   0.00000   0.00096   0.00096   2.23415
    A8        2.19977  -0.00006   0.00000  -0.00029  -0.00029   2.19948
    A9        1.94607   0.00014   0.00000   0.00050   0.00050   1.94657
   A10        2.13734  -0.00008   0.00000  -0.00021  -0.00021   2.13713
   A11        2.20206  -0.00006   0.00000  -0.00031  -0.00031   2.20175
   A12        2.20882  -0.00001   0.00000   0.00014   0.00014   2.20896
   A13        1.87230   0.00007   0.00000   0.00018   0.00018   1.87248
    D1        0.00000   0.00000   0.00000   0.00000   0.00000   0.00000
    D2        3.14159   0.00000   0.00000   0.00000   0.00000   3.14159
    D3        3.14159   0.00000   0.00000   0.00000   0.00000   3.14159
    D4        0.00000   0.00000   0.00000   0.00000   0.00000   0.00000
    D5        3.14159   0.00000   0.00000   0.00000   0.00000   3.14159
    D6        0.00000   0.00000   0.00000   0.00000   0.00000   0.00000
    D7        0.00000   0.00000   0.00000   0.00000   0.00000   0.00000
    D8        3.14159   0.00000   0.00000   0.00000   0.00000   3.14159
    D9        0.00000   0.00000   0.00000   0.00000   0.00000   0.00000
   D10        3.14159   0.00000   0.00000   0.00000   0.00000   3.14159
   D11        3.14159   0.00000   0.00000   0.00000   0.00000   3.14159
   D12        0.00000   0.00000   0.00000   0.00000   0.00000   0.00000
   D13        3.14159   0.00000   0.00000   0.00000   0.00000   3.14159
   D14        0.00000   0.00000   0.00000   0.00000   0.00000   0.00000
   D15        0.00000   0.00000   0.00000   0.00000   0.00000   0.00000
   D16        3.14159   0.00000   0.00000   0.00000   0.00000   3.14159
         Item               Value     Threshold  Converged?
 Maximum Force            0.000305     0.000450     YES
 RMS     Force            0.000092     0.000300     YES
 Maximum Displacement     0.000755     0.001800     YES
 RMS     Displacement     0.000282     0.001200     YES
 Predicted change in Energy=-5.831786D-07
 Optimization completed.
    -- Stationary point found.
                         ----------------------------
                         !   Optimized Parameters   !
                         ! (Angstroms and Degrees)  !
 ------------------------                            -------------------------
 ! Name  Definition              Value          Derivative Info.             !
 -----------------------------------------------------------------------------
 ! R1    R(1,5)                  1.3907         -DE/DX =    0.0003           !
 ! R2    R(1,8)                  1.3303         -DE/DX =    0.               !
 ! R3    R(2,9)                  1.0175         -DE/DX =    0.               !
 ! R4    R(3,4)                  1.0858         -DE/DX =    0.0001           !
 ! R5    R(3,5)                  1.3861         -DE/DX =    0.0001           !
 ! R6    R(3,9)                  1.3937         -DE/DX =   -0.0002           !
 ! R7    R(5,6)                  1.0874         -DE/DX =    0.0001           !
 ! R8    R(7,8)                  1.0874         -DE/DX =    0.0001           !
 ! R9    R(8,9)                  1.3825         -DE/DX =   -0.0003           !
 ! A1    A(5,1,8)              105.3576         -DE/DX =   -0.0001           !
 ! A2    A(4,3,5)              132.8925         -DE/DX =    0.               !
 ! A3    A(4,3,9)              122.0618         -DE/DX =    0.               !
 ! A4    A(5,3,9)              105.0458         -DE/DX =    0.               !
 ! A5    A(1,5,3)              110.8202         -DE/DX =   -0.0001           !
 ! A6    A(1,5,6)              121.227          -DE/DX =    0.               !
 ! A7    A(3,5,6)              127.9528         -DE/DX =    0.0001           !
 ! A8    A(1,8,7)              126.0378         -DE/DX =   -0.0001           !
 ! A9    A(1,8,9)              111.5014         -DE/DX =    0.0001           !
 ! A10   A(7,8,9)              122.4608         -DE/DX =   -0.0001           !
 ! A11   A(2,9,3)              126.1689         -DE/DX =   -0.0001           !
 ! A12   A(2,9,8)              126.5561         -DE/DX =    0.               !
 ! A13   A(3,9,8)              107.275          -DE/DX =    0.0001           !
 ! D1    D(8,1,5,3)              0.             -DE/DX =    0.               !
 ! D2    D(8,1,5,6)            180.             -DE/DX =    0.               !
 ! D3    D(5,1,8,7)            180.             -DE/DX =    0.               !
 ! D4    D(5,1,8,9)              0.             -DE/DX =    0.               !
 ! D5    D(4,3,5,1)            180.             -DE/DX =    0.               !
 ! D6    D(4,3,5,6)              0.             -DE/DX =    0.               !
 ! D7    D(9,3,5,1)              0.             -DE/DX =    0.               !
 ! D8    D(9,3,5,6)            180.             -DE/DX =    0.               !
 ! D9    D(4,3,9,2)              0.             -DE/DX =    0.               !
 ! D10   D(4,3,9,8)            180.             -DE/DX =    0.               !
 ! D11   D(5,3,9,2)            180.             -DE/DX =    0.               !
 ! D12   D(5,3,9,8)              0.             -DE/DX =    0.               !
 ! D13   D(1,8,9,2)            180.             -DE/DX =    0.               !
 ! D14   D(1,8,9,3)              0.             -DE/DX =    0.               !
 ! D15   D(7,8,9,2)              0.             -DE/DX =    0.               !
 ! D16   D(7,8,9,3)            180.             -DE/DX =    0.               !
 -----------------------------------------------------------------------------
 GradGradGradGradGradGradGradGradGradGradGradGradGradGradGradGradGradGrad

 1\1\ NATIONAL INSTITUTE OF STANDARDS AND TECHNOLOGY-AMUR\Freq\RBLYP\6-
 31+G(d,p)\C3H4N2\RDJ3\23-May-2000\0\\#N GEOM=ALLCHECK GUESS=TCHECK RBL
 YP/6-31+G(D,P) FREQ\\1H imidazole C3H4N2 casno=288324\\0,1\N,0.5018541
 931,0.,1.1411454616\H,0.4931208389,0.,-2.0766950897\C,-1.03306009,0.,-
 0.5527958889\H,-1.9185154736,0.,-1.181290924\C,-0.8515310325,0.,0.8213
 471222\H,-1.6139888772,0.,1.5966389724\H,2.2181222757,0.,-0.1660543808
 \C,1.1397426302,0.,-0.0262792079\N,0.2539104054,0.,-1.0877498515\\Vers
 ion=SGI-G98RevA.6\State=1-A'\HF=-226.1563157\RMSD=2.840e-09\RMSF=1.817
 e-04\Dipole=-0.1338183,0.,-1.4893088\DipoleDeriv=-0.3354906,0.0004707,
 -0.0282574,-0.0000489,-0.2884721,0.0003751,-0.0358944,0.0007449,-0.577
 8965,0.1770239,-0.0003297,-0.0056068,-0.000103,0.3231025,-0.0000767,-0
 .0073069,0.00106,0.1434506,-0.0046489,0.0007463,-0.2533827,-0.0001089,
 -0.1600631,-0.0006217,-0.0816209,-0.0004919,0.1969169,0.0109965,0.0003
 541,-0.0466682,-0.0000355,0.2028115,0.0003402,-0.0738249,0.0004256,0.0
 222465,0.1947256,-0.0017599,0.0078966,0.0001086,-0.1410822,-0.0004863,
 -0.0278307,-0.0004883,0.1367118,-0.0101808,-0.0001149,0.0572785,-0.000
 0963,0.1610678,0.0001316,0.0776498,0.0003667,0.0274301,-0.0238086,0.00
 00057,0.0385915,-0.0000487,0.1722611,0.0000345,0.0332465,0.0003115,0.0
 542448,0.0589627,0.0005544,0.06324,-0.0001207,-0.0406103,-0.000229,0.0
 464382,-0.0019873,0.5855288,-0.0675723,0.0000745,0.1669078,0.0004541,-
 0.2290145,0.0005325,0.0691432,0.0000584,-0.5886261\Polar=57.8474623,0.
 0336033,32.7459502,0.8263546,0.1183237,56.2622791\PG=CS [SG(C3H4N2)]\N
 Imag=0\\0.44917117,-0.00000371,0.09489453,-0.05243174,-0.00000467,0.51
 858502,-0.00317532,0.00000234,-0.00748490,0.07625688,-0.00000008,0.006
 55872,0.00000083,-0.00000013,0.01034319,-0.00251293,-0.00000993,-0.004
 20049,-0.09079790,-0.00000022,0.42497117,-0.03210158,-0.00000682,-0.01
 428852,0.00679909,-0.00000036,-0.00378822,0.68618084,0.00000348,0.0153
 4643,0.00000471,-0.00000202,-0.00727468,0.00000767,0.00000595,0.096183
 62,-0.07932239,0.00000771,-0.01977378,0.02617324,0.00000093,-0.0003195
 3,0.15644026,-0.00000423,0.67841370,0.00104581,-0.00000057,0.00118956,
 0.00009825,0.00000109,0.00009577,-0.24271804,0.00000194,-0.13414187,0.
 25727413,-0.00000230,0.00653271,-0.00000180,0.00000150,-0.00100054,-0.
 00000663,-0.00000506,-0.01777028,0.00000457,-0.00000081,0.01632253,-0.
 00384592,-0.00000192,-0.00514028,-0.00080932,0.00000074,0.00011547,-0.
 14426795,0.00000277,-0.15666591,0.14722646,-0.00000138,0.15074895,-0.2
 3046640,0.00000440,-0.03034462,-0.00792683,-0.00000199,-0.00198500,-0.
 09250299,-0.00000944,-0.01630339,0.00468977,0.00000334,-0.02055629,0.6
 0774559,0.00000385,-0.06364861,0.00000369,-0.00000233,0.00232413,0.000
 01035,0.00000814,-0.05768261,-0.00000803,0.00000065,-0.00195605,0.0000
 0177,-0.00000506,0.11950397,-0.04331576,0.00000226,-0.10203492,0.00362
 953,-0.00000156,-0.00000460,-0.03103395,-0.00000494,-0.35214366,0.0014
 5596,0.00000149,0.00213096,-0.15414185,-0.00000136,0.73424294,-0.01945
 212,0.00000389,0.01974941,0.00081333,0.00000060,-0.00000676,0.00813410
 ,-0.00000283,-0.00525760,-0.00023976,0.00000237,0.00059569,-0.18366722
 ,-0.00000354,0.14089710,0.20018659,-0.00000101,-0.00510872,-0.00000083
 ,0.00000036,0.00178720,-0.00000247,-0.00000258,-0.00075798,0.00000257,
 0.00000003,-0.00186452,-0.00000026,0.00000189,-0.02580088,-0.00000039,
 0.00000105,0.02100382,-0.00628196,-0.00000521,0.01118647,0.00117978,-0
 .00000035,0.00022171,0.01925156,0.00000451,-0.00788017,-0.00041916,-0.
 00000334,-0.00018558,0.14342398,0.00000516,-0.20719988,-0.15246734,-0.
 00000169,0.20781060,-0.00838042,-0.00000282,0.00371311,-0.00054450,0.0
 0000028,-0.00042426,0.00087688,0.00000186,-0.00275389,-0.00026133,-0.0
 0000036,0.00037813,0.00093485,0.00000044,0.00227941,-0.00028435,0.0000
 0080,-0.00021984,0.35303882,-0.00000077,-0.00546872,-0.00000061,0.0000
 0010,-0.00100220,-0.00000099,-0.00000159,0.00245012,0.00000103,-0.0000
 0012,0.00177157,-0.00000031,0.00000082,0.00620498,0.00000103,0.0000007
 9,0.00117233,-0.00000119,-0.00000029,0.01815711,0.02785856,-0.00000099
 ,0.00025704,0.00040587,0.00000021,0.00021553,-0.00109458,0.00000181,-0
 .00558682,-0.00099961,-0.00000101,0.00101083,0.00290048,0.00000146,-0.
 00439502,0.00133880,-0.00000063,0.00067673,-0.03741082,-0.00000024,0.0
 5838006,-0.15283243,0.00000366,0.10322637,0.01667115,0.00000106,0.0138
 9604,-0.08557131,0.00000110,0.00309719,-0.00294475,0.00000238,0.003944
 34,-0.08317299,-0.00000278,0.01583894,-0.00587420,-0.00000073,-0.00334
 200,-0.33298916,-0.00000002,0.03500050,0.83211900,0.00000198,-0.068381
 47,0.00000404,-0.00000104,-0.00867188,0.00000404,0.00000242,0.01458590
 ,-0.00000162,0.00000188,0.00239308,0.00000221,-0.00000478,0.00984887,-
 0.00000537,-0.00000180,0.00482297,0.00000275,0.00000387,-0.02041905,0.
 00000050,-0.00000101,0.11641679,0.12900805,0.00000919,-0.30091065,-0.0
 1535862,-0.00000112,-0.00909557,-0.04230450,-0.00001289,-0.00706240,0.
 00329577,0.00000822,-0.00531778,0.06544593,-0.00001120,-0.00372972,-0.
 00170764,0.00000396,0.00039868,0.03085954,0.00000114,-0.05693207,-0.08
 452019,-0.00000473,0.56859918,-0.00380880,-0.00000036,-0.02332869,-0.0
 8899204,-0.00000047,0.08552329,-0.24909694,-0.00000004,0.05206850,-0.0
 1694407,-0.00000107,0.01733487,-0.01563386,0.00000063,0.06439072,0.000
 38370,0.00000018,-0.00112507,-0.01239076,0.00000108,-0.02799921,-0.185
 40532,-0.00000153,-0.08471844,0.57188810,-0.00000146,0.01927512,-0.000
 00533,0.00000119,-0.00306393,-0.00000180,-0.00000006,-0.04508050,-0.00
 000291,-0.00000408,-0.00442852,-0.00000364,0.00001082,0.01120621,0.000
 00884,-0.00000053,0.00474579,-0.00000065,-0.00000373,-0.00286615,-0.00
 000111,-0.00000367,-0.05059520,0.00000746,0.00000154,0.07080718,0.0308
 4414,0.00000355,-0.09796845,0.08306231,0.00000055,-0.41190367,0.061085
 85,0.00000060,-0.12898144,-0.01770286,-0.00000012,0.01330337,0.0115606
 7,-0.00000182,-0.06686615,-0.00314165,-0.00000026,-0.00502853,0.003578
 57,0.00000013,0.00637373,-0.08714108,-0.00000182,-0.18594967,-0.082145
 98,-0.00000087,0.87702086\\-0.00039937,0.,-0.00012362,0.00002313,0.,0.
 00001145,-0.00034409,0.,0.00015650,0.00007966,0.,0.00003391,0.00036046
 ,0.,0.00010210,-0.00000331,0.,-0.00009253,-0.00011838,0.,0.00002251,0.
 00048873,0.,0.00021836,-0.00008683,0.,-0.00032868\\\@

 TO DETECT ERRORS, THE PROGRAMMER MUST HAVE A CONNIVING MIND,
 ONE THAT DELIGHTS IN UNCOVERING FLAWS WHERE BEAUTY AND
 PERFECTION WERE ONCE THOUGHT TO LIE.

             -- THE PSYCHOLOGY OF COMPUTER PROGRAMMING
                GERALD M. WEINBERG
 Job cpu time:  0 days  0 hours 34 minutes 21.6 seconds.
 File lengths (MBytes):  RWF=   19 Int=    0 D2E=    0 Chk=    3 Scr=    1
 Normal termination of Gaussian 98.
