 Gaussian 03, Revision C.02,
 Gaussian 03:  IA32L-G03RevC.02 12-Jun-2004

 --------------------------
 #BLYP/6-311G(d,p) opt freq
 --------------------------

 ---------------------------------------------------
 1H imidazole C3H4N2 casno=288324 method=13 basis=21
 ---------------------------------------------------
 Symbolic Z-matrix:
 Charge =  0 Multiplicity = 1

 SCF Done:  E(RB-LYP) =  -226.126879267     A.U. after   16 cycles
 SCF Done:  E(RB-LYP) =  -226.186888267     A.U. after   13 cycles
 SCF Done:  E(RB-LYP) =  -226.199499777     A.U. after   13 cycles
 SCF Done:  E(RB-LYP) =  -226.199838267     A.U. after   10 cycles
 SCF Done:  E(RB-LYP) =  -226.199965016     A.U. after    9 cycles
 SCF Done:  E(RB-LYP) =  -226.199976672     A.U. after    9 cycles
 Optimization completed.
    -- Stationary point found.
 Normal termination of Gaussian 03 at Fri Jan  7 14:06:39 2005.

 --------------------------------------------------------------------
 #N Geom=AllCheck Guess=Read SCRF=Check GenChk RBLYP/6-311G(d,p) Freq
 --------------------------------------------------------------------

 1H imidazole C3H4N2 casno=288324 method=13 basis=21
 ---------------------------------------------------
 Redundant internal coordinates taken from checkpoint file:
 /scratch/Gau-12274.chk
 Charge =  0 Multiplicity = 1

                         Standard orientation:
 ---------------------------------------------------------------------
 Center     Atomic     Atomic              Coordinates (Angstroms)
 Number     Number      Type              X           Y           Z
 ---------------------------------------------------------------------
    1          7             0       -0.747074   -0.994388    0.000000
    2          1             0       -0.004474    2.129915    0.000000
    3          6             0        1.129137    0.301998    0.000000
    4          1             0        2.131802    0.712105    0.000000
    5          6             0        0.640858   -0.989986    0.000000
    6          1             0        1.206426   -1.916099    0.000000
    7          1             0       -2.117196    0.664374    0.000000
    8          6             0       -1.101168    0.282796    0.000000
    9          7             0        0.000000    1.114509    0.000000
 ---------------------------------------------------------------------

 SCF Done:  E(RB-LYP) =  -226.199976672     A.U. after    1 cycles

 The electronic state is 1-A'.
 Alpha  occ. eigenvalues --  -14.05512 -13.97310  -9.95158  -9.93047  -9.91224
 Alpha  occ. eigenvalues --   -0.91270  -0.77986  -0.66189  -0.54895  -0.52291
 Alpha  occ. eigenvalues --   -0.49850  -0.38682  -0.38516  -0.37225  -0.35461
 Alpha  occ. eigenvalues --   -0.24105  -0.21650  -0.19675
 Alpha virt. eigenvalues --   -0.00670   0.00860   0.03046   0.05938   0.06455
 Alpha virt. eigenvalues --    0.08400   0.16258   0.18111   0.20606   0.25852
 Alpha virt. eigenvalues --    0.28538   0.32480   0.34227   0.36055   0.36879

 Mulliken atomic charges:
              1
     1  N   -0.269905
     2  H    0.216931
     3  C    0.003205
     4  H    0.097189
     5  C   -0.073209
     6  H    0.092801
     7  H    0.102126
     8  C    0.131451
     9  N   -0.300589
 Sum of Mulliken charges=   0.00000

 Dipole moment (field-independent basis, Debye):
    X=     1.0764    Y=     3.4799    Z=     0.0000  Tot=     3.6426
 Quadrupole moment (field-independent basis, Debye-Ang):
   XX=   -26.8530   YY=   -25.7618   ZZ=   -31.7193
   XY=    -3.1220   XZ=     0.0000   YZ=     0.0000

  Exact polarizability:  52.216  -1.202  49.993   0.000   0.000  22.932
 Approx polarizability: 100.415   2.977 103.726   0.000   0.000  37.882

                     1                      2                      3
                    A"                     A"                     A"
 Frequencies --   502.8913               625.7575               662.1452
 Red. masses --     1.5842                 2.2662                 2.9073
 Frc consts  --     0.2361                 0.5228                 0.7510
 IR Inten    --    83.7962                12.2490                 3.3371

                     4                      5                      6
                    A"                     A"                     A"
 Frequencies --   690.4173               762.9994               822.6399
 Red. masses --     1.2228                 1.3493                 1.3205
 Frc consts  --     0.3434                 0.4628                 0.5265
 IR Inten    --    26.5730                41.8061                 6.9481

                     7                      8                      9
                    A'                     A'                     A'
 Frequencies --   878.7029               916.1751              1037.5458
 Red. masses --     5.4645                 4.3650                 1.7043
 Frc consts  --     2.4859                 2.1587                 1.0809
 IR Inten    --    10.3003                 1.9783                34.4170

                    10                     11                     12
                    A'                     A'                     A'
 Frequencies --  1052.7049              1106.5780              1115.0242
 Red. masses --     1.6353                 1.4201                 6.1618
 Frc consts  --     1.0678                 1.0245                 4.5136
 IR Inten    --    18.2808                 3.0968                 4.4798

                    13                     14                     15
                    A'                     A'                     A'
 Frequencies --  1238.2154              1305.3082              1373.0420
 Red. masses --     1.3999                 3.2519                 2.7283
 Frc consts  --     1.2646                 3.2645                 3.0305
 IR Inten    --     0.3617                 5.9419                12.8407

                    16                     17                     18
                    A'                     A'                     A'
 Frequencies --  1439.2277              1494.8968              3158.8199
 Red. masses --     2.8849                 2.9554                 1.0913
 Frc consts  --     3.5208                 3.8912                 6.4157
 IR Inten    --    13.8767                 9.6393                 7.4230

                    19                     20                     21
                    A'                     A'                     A'
 Frequencies --  3165.0513              3190.3862              3536.6922
 Red. masses --     1.0954                 1.1029                 1.0808
 Frc consts  --     6.4651                 6.6143                 7.9650
 IR Inten    --     1.7775                 3.5617                29.3865

 - Thermochemistry -
 -------------------
 Temperature   298.150 Kelvin.  Pressure   1.00000 Atm.
 Atom  1 has atomic number  7 and mass  14.00307

 Molecular mass:    68.03745 amu.
 Principal axes and moments of inertia in atomic units:
                           1         2         3
     EIGENVALUES --   187.99387 195.48015 383.47403
           X            0.48520   0.87440   0.00000
           Y            0.87440  -0.48520   0.00000
           Z            0.00000   0.00000   1.00000
 This molecule is an asymmetric top.
 Rotational symmetry number  1.
 Rotational temperatures (Kelvin)      0.46073     0.44308     0.22587
 Rotational constants (GHZ):           9.60000     9.23235     4.70629
 Zero-point vibrational energy     179889.8 (Joules/Mol)
                                   42.99469 (Kcal/Mol)
 Warning -- explicit consideration of   1 degrees of freedom as
           vibrations may cause significant error
 Vibrational temperatures:    723.55   900.32   952.68   993.36  1097.78
          (Kelvin)           1183.59  1264.26  1318.17  1492.80  1514.61
                             1592.12  1604.27  1781.51  1878.05  1975.50
                             2070.73  2150.82  4544.83  4553.80  4590.25
                             5088.51

 Zero-point correction=                           0.068516 (Hartree/Particle)
 Thermal correction to Energy=                    0.072388
 Thermal correction to Enthalpy=                  0.073333
 Thermal correction to Gibbs Free Energy=         0.042185
 Sum of electronic and zero-point Energies=           -226.131460
 Sum of electronic and thermal Energies=              -226.127588
 Sum of electronic and thermal Enthalpies=            -226.126644
 Sum of electronic and thermal Free Energies=         -226.157792

                     E (Thermal)             CV                S
                      KCal/Mol        Cal/Mol-Kelvin    Cal/Mol-Kelvin
 Total                   45.424             14.084             65.556
 Electronic               0.000              0.000              0.000
 Translational            0.889              2.981             38.570
 Rotational               0.889              2.981             24.159
 Vibrational             43.647              8.123              2.827
 Vibration  1             0.858              1.244              0.651

 Optimization completed.
    -- Stationary point found.
 Normal termination of Gaussian 03 at Fri Jan  7 14:14:17 2005.
