 Gaussian 98, Revision A.7,
 Gaussian 98:  SGI64-G98RevA.7 11-Apr-1999

 --------------------
 #BLYP/3-21G opt freq
 --------------------

 --------------------------------
 1H imidazole C3H4N2 casno=288324
 --------------------------------
 Symbolic Z-matrix:
 Charge =  0 Multiplicity = 1

 SCF Done:  E(RB-LYP) =  -224.790585261     A.U. after   16 cycles
 SCF Done:  E(RB-LYP) =  -224.859775664     A.U. after   15 cycles
 SCF Done:  E(RB-LYP) =  -224.878199781     A.U. after   15 cycles
 SCF Done:  E(RB-LYP) =  -224.878803998     A.U. after   14 cycles
 SCF Done:  E(RB-LYP) =  -224.879043830     A.U. after   10 cycles
 SCF Done:  E(RB-LYP) =  -224.879090342     A.U. after   10 cycles
 SCF Done:  E(RB-LYP) =  -224.879092797     A.U. after    8 cycles
 Optimization completed.
    -- Stationary point found.
 Normal termination of Gaussian 98.

 ----------------------------------------------
 #N Geom=AllCheck Guess=TCheck RBLYP/3-21G Freq
 ----------------------------------------------

 1H imidazole C3H4N2 casno=288324
 --------------------------------
 Redundant internal coordinates taken from checkpointfile:
 /tmp/Gau-14805992.chk
 Charge =  0 Multiplicity = 1

                         Standard orientation:
 ---------------------------------------------------------------------
 Center     Atomic     Atomic              Coordinates (Angstroms)
 Number     Number      Type              X           Y           Z
 ---------------------------------------------------------------------
    1          7             0       -0.758539   -1.005114    0.000000
    2          1             0        0.004481    2.148700    0.000000
    3          6             0        1.140068    0.300642    0.000000
    4          1             0        2.144756    0.702673    0.000000
    5          6             0        0.657335   -0.997769    0.000000
    6          1             0        1.222281   -1.921379    0.000000
    7          1             0       -2.132594    0.669472    0.000000
    8          6             0       -1.118928    0.288417    0.000000
    9          7             0        0.000000    1.126942    0.000000
 ---------------------------------------------------------------------

 SCF Done:  E(RB-LYP) =  -224.879092797     A.U. after    1 cycles

  The electronic state is 1-A'.
 Alpha  occ. eigenvalues --  -14.00180 -13.91740  -9.91077  -9.89030  -9.86913
 Alpha  occ. eigenvalues --   -0.90907  -0.77687  -0.65893  -0.54333  -0.51921
 Alpha  occ. eigenvalues --   -0.49549  -0.38461  -0.38259  -0.36002  -0.35347
 Alpha  occ. eigenvalues --   -0.22595  -0.19117  -0.18980
 Alpha virt. eigenvalues --    0.00731   0.04645   0.06413   0.11936   0.13751
 Alpha virt. eigenvalues --    0.16002   0.19524   0.22103   0.31778   0.36301
 Alpha virt. eigenvalues --    0.40945   0.63571   0.66225   0.67086   0.69804

  Exact polarizability:  46.369  -1.851  44.320   0.001  -0.005  13.005
 Approx polarizability:  90.279   3.153  97.699   0.000   0.000  18.418

                     1                      2                      3
                    A"                     A"                     A"
 Frequencies --   585.4403               631.3502               661.0850
 Red. masses --     1.6222                 1.8444                 3.2937
 Frc consts  --     0.3276                 0.4332                 0.8481
 IR Inten    --   124.9399                18.7000                 1.7443
 Raman Activ --     0.0000                 0.0000                 0.0000

                     4                      5                      6
                    A"                     A"                     A"
 Frequencies --   725.8299               790.2430               857.9966
 Red. masses --     1.2419                 1.3650                 1.3583
 Frc consts  --     0.3855                 0.5022                 0.5891
 IR Inten    --    28.6384                35.2183                 4.3823
 Raman Activ --     0.0000                 0.0000                 0.0000

                     7                      8                      9
                    A'                     A'                     A'
 Frequencies --   881.9362               926.9009              1008.0942
 Red. masses --     6.2076                 4.2483                 2.4425
 Frc consts  --     2.8448                 2.1505                 1.4625
 IR Inten    --    12.0990                 2.5481                15.9762
 Raman Activ --     0.0000                 0.0000                 0.0000

                    10                     11                     12
                    A'                     A'                     A'
 Frequencies --  1042.5280              1057.5776              1116.8748
 Red. masses --     2.0704                 5.2385                 1.3752
 Frc consts  --     1.3258                 3.4521                 1.0107
 IR Inten    --    11.2611                21.0786                 2.0769
 Raman Activ --     0.0000                 0.0000                 0.0000

                    13                     14                     15
                    A'                     A'                     A'
 Frequencies --  1231.5935              1267.3755              1339.5775
 Red. masses --     2.2793                 1.9346                 1.8233
 Frc consts  --     2.0369                 1.8308                 1.9277
 IR Inten    --     4.0328                 6.9096                 8.2879
 Raman Activ --     0.0000                 0.0000                 0.0000

                    16                     17                     18
                    A'                     A'                     A'
 Frequencies --  1406.6785              1476.2123              3205.6079
 Red. masses --     2.3155                 2.4333                 1.0904
 Frc consts  --     2.6995                 3.1243                 6.6018
 IR Inten    --     5.0726                16.7560                 4.8198
 Raman Activ --     0.0000                 0.0000                 0.0000

                    19                     20                     21
                    A'                     A'                     A'
 Frequencies --  3208.8588              3230.8329              3455.5111
 Red. masses --     1.0951                 1.1061                 1.0813
 Frc consts  --     6.6437                 6.8028                 7.6069
 IR Inten    --     1.5412                 2.0767                23.3123
 Raman Activ --     0.0000                 0.0000                 0.0000

 - Thermochemistry -
 -------------------
 Temperature   298.150 Kelvin.  Pressure   1.00000 Atm.
 Atom  1 has atomic number  7 and mass  14.00307

 Molecular mass:    68.03745 amu.
 Principal axes and moments of inertia in atomic units:
                           1         2         3
     EIGENVALUES --   193.16389 198.98172 392.14561
           X            0.53982   0.84178   0.00000
           Y            0.84178  -0.53982   0.00000
           Z            0.00000   0.00000   1.00000
 THIS MOLECULE IS AN ASYMMETRIC TOP.
 ROTATIONAL SYMMETRY NUMBER  1.
 ROTATIONAL TEMPERATURES (KELVIN)      0.44839     0.43528     0.22087
 ROTATIONAL CONSTANTS (GHZ)            9.34306     9.06988     4.60222
 Zero-point vibrational energy     180086.5 (Joules/Mol)
                                   43.04170 (Kcal/Mol)
 WARNING-- EXPLICIT CONSIDERATION OF   1 DEGREES OF FREEDOM AS
           VIBRATIONS MAY CAUSE SIGNIFICANT ERROR
 VIBRATIONAL TEMPERATURES:    842.31   908.37   951.15  1044.30  1136.98
          (KELVIN)           1234.46  1268.90  1333.60  1450.41  1499.96
                             1521.61  1606.92  1771.98  1823.46  1927.34
                             2023.88  2123.93  4612.13  4616.81  4648.42
                             4971.68

 Zero-point correction=                           0.068591 (Hartree/Particle)
 Thermal correction to Energy=                    0.072388
 Thermal correction to Enthalpy=                  0.073332
 Thermal correction to Gibbs Free Energy=         0.042267
 Sum of electronic and zero-point Energies=           -224.810501
 Sum of electronic and thermal Energies=              -224.806705
 Sum of electronic and thermal Enthalpies=            -224.805761
 Sum of electronic and thermal Free Energies=         -224.836825

                     E (Thermal)             CV                S
                      KCAL/MOL        CAL/MOL-KELVIN    CAL/MOL-KELVIN
 TOTAL                   45.424             13.844             65.381
 ELECTRONIC               0.000              0.000              0.000
 TRANSLATIONAL            0.889              2.981             38.570
 ROTATIONAL               0.889              2.981             24.226
 VIBRATIONAL             43.647              7.882              2.585
 VIBRATION  1             0.942              1.063              0.475
                       Q            LOG10(Q)             LN(Q)
 TOTAL BOT       0.361795D-19        -19.441538        -44.765796
 TOTAL V=0       0.128252D+13         12.108064         27.879849
 VIB (BOT)       0.373196D-31        -31.428063        -72.365789
 VIB (BOT)  1    0.258869D+00         -0.586920         -1.351434
 VIB (V=0)       0.132294D+01          0.121539          0.279855
 VIB (V=0)  1    0.106304D+01          0.026549          0.061132
 ELECTRONIC      0.100000D+01          0.000000          0.000000
 TRANSLATIONAL   0.220588D+08          7.343582         16.909224
 ROTATIONAL      0.439484D+05          4.642943         10.690770
 ***** Axes restored to original set *****
 -------------------------------------------------------------------
 Center     Atomic                   Forces (Hartrees/Bohr)
 Number     Number              X              Y              Z
 -------------------------------------------------------------------
    1          7           0.000388815    0.000000000    0.000023618
    2          1           0.000002730    0.000000000   -0.000042460
    3          6           0.000418283    0.000000000   -0.000318266
    4          1          -0.000104457    0.000000000   -0.000038791
    5          6          -0.000369967    0.000000000    0.000052182
    6          1          -0.000033275    0.000000000    0.000092533
    7          1           0.000141218    0.000000000   -0.000018126
    8          6          -0.000401671    0.000000000   -0.000284490
    9          7          -0.000041675    0.000000000    0.000533799
 -------------------------------------------------------------------
 Cartesian Forces:  Max     0.000533799 RMS     0.000205544

 GradGradGradGradGradGradGradGradGradGradGradGradGradGradGradGradGradGrad
 Berny optimization.
 Internal  Forces:  Max     0.000341958 RMS     0.000108251
 Search for a local minimum.
 Step number   1 out of a maximum of  48
 All quantities printed in internal units (Hartrees-Bohrs-Radians)
 Second derivative matrix not updated -- analytic derivatives used.
     Eigenvalues ---    0.00656   0.01123   0.01921   0.02622   0.05957
     Eigenvalues ---    0.06147   0.09394   0.10230   0.10646   0.11124
     Eigenvalues ---    0.20297   0.21448   0.28215   0.33973   0.36232
     Eigenvalues ---    0.36289   0.36709   0.39981   0.42359   0.44423
     Eigenvalues ---    0.503091000.000001000.000001000.000001000.00000
     Eigenvalues --- 1000.000001000.000001000.000001000.000001000.00000
     Eigenvalues --- 1000.000001000.000001000.000001000.000001000.00000
     Eigenvalues --- 1000.000001000.000001000.00000
 Angle between quadratic step and forces=  19.26 degrees.
 Linear search not attempted -- first point.
 Iteration  1 RMS(Cart)=  0.00035104 RMS(Int)=  0.00000010
 Iteration  2 RMS(Cart)=  0.00000010 RMS(Int)=  0.00000001
 Variable       Old X    -DE/DX   Delta X   Delta X   Delta X     New X
                                 (Linear)    (Quad)   (Total)
    R1        2.67565   0.00030   0.00000   0.00135   0.00135   2.67700
    R2        2.53752  -0.00004   0.00000  -0.00001  -0.00001   2.53751
    R3        1.93086   0.00004   0.00000   0.00012   0.00012   1.93098
    R4        2.04495   0.00011   0.00000   0.00030   0.00030   2.04525
    R5        2.61773   0.00015   0.00000   0.00040   0.00040   2.61813
    R6        2.66078  -0.00027   0.00000  -0.00092  -0.00092   2.65986
    R7        2.04599   0.00009   0.00000   0.00018   0.00018   2.04617
    R8        2.04643   0.00014   0.00000   0.00041   0.00041   2.04684
    R9        2.64232  -0.00034   0.00000  -0.00118  -0.00118   2.64115
    A1        1.83733  -0.00008   0.00000  -0.00037  -0.00037   1.83696
    A2        2.30739  -0.00003   0.00000  -0.00043  -0.00043   2.30695
    A3        2.13379   0.00002   0.00000   0.00032   0.00032   2.13411
    A4        1.84201   0.00001   0.00000   0.00012   0.00012   1.84212
    A5        1.93194  -0.00016   0.00000  -0.00058  -0.00058   1.93135
    A6        2.11457   0.00004   0.00000  -0.00026  -0.00026   2.11431
    A7        2.23668   0.00012   0.00000   0.00084   0.00084   2.23752
    A8        2.20209  -0.00004   0.00000  -0.00033  -0.00033   2.20176
    A9        1.94220   0.00007   0.00000   0.00029   0.00029   1.94248
   A10        2.13890  -0.00003   0.00000   0.00004   0.00004   2.13894
   A11        2.19358  -0.00009   0.00000  -0.00030  -0.00030   2.19327
   A12        2.21830  -0.00008   0.00000  -0.00024  -0.00024   2.21806
   A13        1.87131   0.00016   0.00000   0.00054   0.00054   1.87185
    D1        0.00000   0.00000   0.00000   0.00000   0.00000   0.00000
    D2        3.14159   0.00000   0.00000   0.00000   0.00000   3.14159
    D3        3.14159   0.00000   0.00000   0.00000   0.00000   3.14159
    D4        0.00000   0.00000   0.00000   0.00000   0.00000   0.00000
    D5        3.14159   0.00000   0.00000   0.00000   0.00000   3.14159
    D6        0.00000   0.00000   0.00000   0.00000   0.00000   0.00000
    D7        0.00000   0.00000   0.00000   0.00000   0.00000   0.00000
    D8        3.14159   0.00000   0.00000   0.00000   0.00000   3.14159
    D9        0.00000   0.00000   0.00000   0.00000   0.00000   0.00000
   D10        3.14159   0.00000   0.00000   0.00000   0.00000   3.14159
   D11        3.14159   0.00000   0.00000   0.00000   0.00000   3.14159
   D12        0.00000   0.00000   0.00000   0.00000   0.00000   0.00000
   D13        3.14159   0.00000   0.00000   0.00000   0.00000   3.14159
   D14        0.00000   0.00000   0.00000   0.00000   0.00000   0.00000
   D15        0.00000   0.00000   0.00000   0.00000   0.00000   0.00000
   D16        3.14159   0.00000   0.00000   0.00000   0.00000   3.14159
         Item               Value     Threshold  Converged?
 Maximum Force            0.000342     0.000450     YES
 RMS     Force            0.000108     0.000300     YES
 Maximum Displacement     0.000791     0.001800     YES
 RMS     Displacement     0.000351     0.001200     YES
 Predicted change in Energy=-8.154146D-07
 Optimization completed.
    -- Stationary point found.
                         ----------------------------
                         !   Optimized Parameters   !
                         ! (Angstroms and Degrees)  !
 ------------------------                            -------------------------
 ! Name  Definition              Value          Derivative Info.             !
 -----------------------------------------------------------------------------
 ! R1    R(1,5)                  1.4159         -DE/DX =    0.0003           !
 ! R2    R(1,8)                  1.3428         -DE/DX =    0.               !
 ! R3    R(2,9)                  1.0218         -DE/DX =    0.               !
 ! R4    R(3,4)                  1.0821         -DE/DX =    0.0001           !
 ! R5    R(3,5)                  1.3852         -DE/DX =    0.0002           !
 ! R6    R(3,9)                  1.408          -DE/DX =   -0.0003           !
 ! R7    R(5,6)                  1.0827         -DE/DX =    0.0001           !
 ! R8    R(7,8)                  1.0829         -DE/DX =    0.0001           !
 ! R9    R(8,9)                  1.3983         -DE/DX =   -0.0003           !
 ! A1    A(5,1,8)              105.2711         -DE/DX =   -0.0001           !
 ! A2    A(4,3,5)              132.2036         -DE/DX =    0.               !
 ! A3    A(4,3,9)              122.257          -DE/DX =    0.               !
 ! A4    A(5,3,9)              105.5393         -DE/DX =    0.               !
 ! A5    A(1,5,3)              110.6917         -DE/DX =   -0.0002           !
 ! A6    A(1,5,6)              121.1558         -DE/DX =    0.               !
 ! A7    A(3,5,6)              128.1525         -DE/DX =    0.0001           !
 ! A8    A(1,8,7)              126.1704         -DE/DX =    0.               !
 ! A9    A(1,8,9)              111.2796         -DE/DX =    0.0001           !
 ! A10   A(7,8,9)              122.55           -DE/DX =    0.               !
 ! A11   A(2,9,3)              125.6826         -DE/DX =   -0.0001           !
 ! A12   A(2,9,8)              127.0991         -DE/DX =   -0.0001           !
 ! A13   A(3,9,8)              107.2182         -DE/DX =    0.0002           !
 ! D1    D(8,1,5,3)              0.             -DE/DX =    0.               !
 ! D2    D(8,1,5,6)            180.             -DE/DX =    0.               !
 ! D3    D(5,1,8,7)            180.             -DE/DX =    0.               !
 ! D4    D(5,1,8,9)              0.             -DE/DX =    0.               !
 ! D5    D(4,3,5,1)            180.             -DE/DX =    0.               !
 ! D6    D(4,3,5,6)              0.             -DE/DX =    0.               !
 ! D7    D(9,3,5,1)              0.             -DE/DX =    0.               !
 ! D8    D(9,3,5,6)            180.             -DE/DX =    0.               !
 ! D9    D(4,3,9,2)              0.             -DE/DX =    0.               !
 ! D10   D(4,3,9,8)            180.             -DE/DX =    0.               !
 ! D11   D(5,3,9,2)            180.             -DE/DX =    0.               !
 ! D12   D(5,3,9,8)              0.             -DE/DX =    0.               !
 ! D13   D(1,8,9,2)            180.             -DE/DX =    0.               !
 ! D14   D(1,8,9,3)              0.             -DE/DX =    0.               !
 ! D15   D(7,8,9,2)              0.             -DE/DX =    0.               !
 ! D16   D(7,8,9,3)            180.             -DE/DX =    0.               !
 -----------------------------------------------------------------------------
 GradGradGradGradGradGradGradGradGradGradGradGradGradGradGradGradGradGrad

 1\1\ NATIONAL INSTITUTE OF STANDARDS AND TECHNOLOGY-TAY\Freq\RBLYP\3-2
 1G\C3H4N2\RDJ3\07-Mar-2000\0\\#N GEOM=ALLCHECK GUESS=TCHECK RBLYP/3-21
 G FREQ\\1H imidazole C3H4N2 casno=288324\\0,1\N,0.5090331367,0.,1.1517
 46756\H,0.4861976923,0.,-2.0929748477\C,-1.0413206368,0.,-0.5529853175
 \H,-1.927688202,0.,-1.1737747236\C,-0.8677701576,0.,0.821344535\H,-1.6
 286613093,0.,1.5915811905\H,2.2291152065,0.,-0.1649079148\C,1.15522348
 91,0.,-0.0253425637\N,0.2572869267,0.,-1.0971787028\\Version=SGI64-G98
 RevA.7\State=1-A'\HF=-224.8790928\RMSD=3.246e-09\RMSF=2.055e-04\Dipole
 =-0.1187362,0.,-1.4595649\DipoleDeriv=-0.32085,-0.0001936,0.0254598,0.
 0001895,-0.2588039,-0.0002883,0.0108419,-0.0000866,-0.4642848,0.189214
 3,-0.0000546,-0.0049086,0.0000182,0.3626579,-0.0001035,0.0013074,0.000
 1725,0.1180115,-0.02328,0.0000292,-0.202283,-0.0001237,-0.1147934,0.00
 00269,-0.0237335,-0.0000221,0.1938774,0.0179875,-0.0000573,-0.042749,0
 .0000122,0.1852026,0.0000428,-0.0766874,-0.0000548,0.0322869,0.1243808
 ,0.0002676,-0.1582014,-0.0000183,-0.1420456,0.0000235,-0.073314,0.0000
 977,0.0791993,0.0012816,0.0000056,0.0755355,-0.0000384,0.150231,0.0000
 56,0.0719964,-0.0000097,0.0293753,-0.0312971,0.0003022,0.0183732,-0.00
 00334,0.1689428,0.0000534,0.0429941,-0.000064,0.0681421,0.1278493,-0.0
 003275,0.1273076,-0.0001722,-0.0386174,0.0002415,-0.0356779,0.0002547,
 0.4107387,-0.0852854,0.0000284,0.1614656,0.0001661,-0.3127738,-0.00005
 22,0.0822737,-0.0002879,-0.4673455\Polar=47.0846752,0.0023196,13.00471
 49,-1.202245,-0.0048638,43.6036091\PG=CS [SG(C3H4N2)]\NImag=0\\0.38537
 329,0.00000378,0.09739104,-0.05180334,-0.00000151,0.45403069,-0.003124
 07,0.00000365,-0.00726491,0.07615729,0.00000520,0.00602599,0.00000303,
 0.00000117,0.01270075,-0.00248844,-0.00000912,-0.00388826,-0.08178957,
 -0.00000456,0.40530093,-0.03706385,0.00000222,-0.01653096,0.00558610,-
 0.00000263,-0.00570719,0.67335279,0.00000155,0.01704026,0.00000403,-0.
 00000123,-0.00535233,0.00000201,-0.00000319,0.11076150,-0.07812577,0.0
 0000283,-0.02542697,0.02856670,0.00000093,-0.00075442,0.17288747,0.000
 00006,0.66743465,0.00121900,-0.00000166,0.00166820,-0.00010117,0.00000
 313,0.00052502,-0.24815770,0.00000402,-0.13680829,0.26152501,-0.000000
 49,0.00651351,-0.00000133,0.00000028,-0.00114126,-0.00000123,-0.000001
 41,-0.02140449,-0.00000004,-0.00000007,0.01810905,-0.00332714,-0.00000
 011,-0.00408797,-0.00082993,0.00000240,0.00001379,-0.14688660,0.000002
 40,-0.15597308,0.14787116,-0.00000015,0.15142077,-0.17069113,-0.000007
 85,-0.00454679,-0.00758220,-0.00000688,-0.00348741,-0.09234790,-0.0000
 0199,-0.01454374,0.00468023,0.00000160,-0.02266066,0.57124001,0.000000
 31,-0.06642530,0.00000027,0.00000007,0.00285764,-0.00000096,-0.0000016
 3,-0.06571659,0.00000030,0.00000132,-0.00066052,0.00000085,0.00000023,
 0.12868670,-0.03276385,0.00000327,-0.08488915,0.00297339,-0.00000484,0
 .00082561,-0.02799101,-0.00000698,-0.33963591,0.00310264,0.00000088,0.
 00165506,-0.18278892,-0.00000167,0.72361270,-0.01910449,0.00000041,0.0
 1823807,0.00075430,-0.00000011,0.00013543,0.00798079,0.00000013,-0.007
 15723,-0.00019494,-0.00000024,0.00084458,-0.18825381,-0.00000015,0.146
 11508,0.20297082,-0.00000337,-0.00505788,-0.00000094,-0.00000112,0.001
 53582,0.00000400,0.00000209,0.00013235,-0.00000042,-0.00000146,-0.0022
 1296,-0.00000116,0.00000397,-0.02802796,0.00000188,0.00000027,0.022322
 61,-0.00900762,-0.00000165,0.01027435,0.00110608,0.00000040,0.00010138
 ,0.02151356,0.00000073,-0.00864254,-0.00057838,0.00000018,-0.00019375,
 0.14707095,0.00000027,-0.21106524,-0.15460835,-0.00000039,0.21277135,-
 0.00687433,-0.00000618,0.00194761,-0.00058849,-0.00000841,-0.00078022,
 0.00162911,-0.00000227,-0.00230293,-0.00025308,-0.00000028,0.00026235,
 0.00138967,-0.00000079,0.00128700,-0.00024538,0.00000618,-0.00006262,0
 .35715111,-0.00000222,-0.00501100,-0.00000099,-0.00000048,-0.00111199,
 0.00000128,-0.00000042,0.00253670,0.,-0.00000013,0.00151751,-0.0000002
 9,0.00000306,0.00660331,0.00000050,0.00000001,0.00114110,-0.00000003,0
 .00000315,0.01955037,0.02796863,0.00000292,-0.00237580,0.00049006,0.00
 000153,-0.00001074,-0.00075730,-0.00000034,-0.00548541,-0.00087338,-0.
 00000011,0.00112979,0.00221317,-0.00000002,-0.00346115,0.00123847,-0.0
 0000108,0.00075098,-0.03740705,-0.00000068,0.05863381,-0.14132906,0.00
 001050,0.08050126,0.01617954,0.00000860,0.01600874,-0.09584719,0.00000
 017,-0.00197399,-0.00201914,0.00000055,0.00455884,-0.09993541,0.000000
 74,0.02393444,-0.00433216,-0.00000663,-0.00410358,-0.34013739,-0.00000
 319,0.03650042,0.83373968,-0.00000098,-0.07118719,0.00000339,-0.000003
 67,-0.00620448,0.00000944,-0.00000178,0.01672518,-0.00000362,0.0000015
 2,0.00289770,0.00000006,0.00000391,0.00942013,-0.00000365,-0.00000025,
 0.00501559,0.00000170,0.00000200,-0.02337942,-0.00000233,-0.00000730,0
 .12652839,0.12195689,-0.00000617,-0.24238517,-0.01694823,-0.00000647,-
 0.00978669,-0.04573290,-0.00000322,-0.00695102,0.00307565,0.00000237,-
 0.00607347,0.06424848,0.00000072,-0.01736779,-0.00149149,0.00000327,0.
 00050296,0.03197627,0.00000308,-0.05377006,-0.09196798,0.00000141,0.49
 568801,-0.00840536,-0.00000486,-0.02220915,-0.08728130,-0.00000007,0.0
 7758366,-0.21513216,0.00000280,0.03945779,-0.01669821,0.00000006,0.020
 16740,-0.01849948,-0.00000010,0.06613124,0.00042488,0.00000009,-0.0013
 3006,-0.01207119,0.00000022,-0.02937302,-0.16631889,0.00000655,-0.0651
 1669,0.52398171,-0.00000380,0.02071056,-0.00000593,0.00000132,-0.00931
 015,-0.00000085,0.00000677,-0.05472257,-0.00000007,-0.00000668,-0.0036
 1854,-0.00000400,0.00000398,0.01326259,0.00001061,-0.00000008,0.005151
 33,-0.00000122,0.00000660,-0.00184659,0.00000011,-0.00000341,-0.059815
 88,0.00000500,-0.00000469,0.09018924,0.02759063,0.00000955,-0.10125169
 ,0.07369641,0.00000757,-0.39180156,0.04920492,0.00000130,-0.12456531,-
 0.01798258,-0.00000058,0.01210888,0.01449492,0.00000024,-0.06967413,-0
 .00331456,-0.00000516,-0.00449949,0.00507958,-0.00000289,0.00458858,-0
 .06345815,-0.00000640,-0.15985677,-0.08531118,-0.00000364,0.83495148\\
 -0.00038881,0.,-0.00002362,-0.00000273,0.,0.00004246,-0.00041828,0.,0.
 00031827,0.00010446,0.,0.00003879,0.00036997,0.,-0.00005218,0.00003327
 ,0.,-0.00009253,-0.00014122,0.,0.00001813,0.00040167,0.,0.00028449,0.0
 0004168,0.,-0.00053380\\\@

 WE ARE REACHING THE STAGE WHERE THE PROBLEMS WE MUST SOLVE ARE
 GOING TO BECOME INSOLUBLE WITHOUT COMPUTERS.
 I DO NOT FEAR COMPUTERS.  I FEAR THE LACK OF THEM.

                                   -- ISSAC ASIMOV
 Job cpu time:  0 days  0 hours  1 minutes 24.5 seconds.
 File lengths (MBytes):  RWF=   10 Int=    0 D2E=    0 Chk=    4 Scr=    1
 Normal termination of Gaussian 98.
