 Gaussian 98, Revision A.7,
 Gaussian 98:  SGI64-G98RevA.7 11-Apr-1999

 ---------------------
 #BLYP/3-21G* opt freq
 ---------------------

 --------------------------------
 1H imidazole C3H4N2 casno=288324
 --------------------------------
 Symbolic Z-matrix:
 Charge =  0 Multiplicity = 1

 SCF Done:  E(RB-LYP) =  -224.790585261     A.U. after   16 cycles
 SCF Done:  E(RB-LYP) =  -224.859775664     A.U. after   15 cycles
 SCF Done:  E(RB-LYP) =  -224.878199781     A.U. after   15 cycles
 SCF Done:  E(RB-LYP) =  -224.878803998     A.U. after   14 cycles
 SCF Done:  E(RB-LYP) =  -224.879043830     A.U. after   10 cycles
 SCF Done:  E(RB-LYP) =  -224.879090342     A.U. after   10 cycles
 SCF Done:  E(RB-LYP) =  -224.879092797     A.U. after    8 cycles
 Optimization completed.
    -- Stationary point found.
 Normal termination of Gaussian 98.

 -----------------------------------------------
 #N Geom=AllCheck Guess=TCheck RBLYP/3-21G* Freq
 -----------------------------------------------

 1H imidazole C3H4N2 casno=288324
 --------------------------------
 Redundant internal coordinates taken from checkpointfile:
 /tmp/Gau-1013640.chk
 Charge =  0 Multiplicity = 1

                         Standard orientation:
 ---------------------------------------------------------------------
 Center     Atomic     Atomic              Coordinates (Angstroms)
 Number     Number      Type              X           Y           Z
 ---------------------------------------------------------------------
    1          7             0       -0.758539   -1.005114    0.000000
    2          1             0        0.004481    2.148700    0.000000
    3          6             0        1.140068    0.300642    0.000000
    4          1             0        2.144756    0.702673    0.000000
    5          6             0        0.657335   -0.997769    0.000000
    6          1             0        1.222281   -1.921379    0.000000
    7          1             0       -2.132594    0.669472    0.000000
    8          6             0       -1.118928    0.288417    0.000000
    9          7             0        0.000000    1.126942    0.000000
 ---------------------------------------------------------------------

 SCF Done:  E(RB-LYP) =  -224.879092797     A.U. after    1 cycles

  The electronic state is 1-A'.
 Alpha  occ. eigenvalues --  -14.00180 -13.91740  -9.91077  -9.89030  -9.86913
 Alpha  occ. eigenvalues --   -0.90907  -0.77687  -0.65893  -0.54333  -0.51921
 Alpha  occ. eigenvalues --   -0.49549  -0.38461  -0.38259  -0.36002  -0.35347
 Alpha  occ. eigenvalues --   -0.22595  -0.19117  -0.18980
 Alpha virt. eigenvalues --    0.00731   0.04645   0.06413   0.11936   0.13751
 Alpha virt. eigenvalues --    0.16002   0.19524   0.22103   0.31778   0.36301
 Alpha virt. eigenvalues --    0.40945   0.63571   0.66225   0.67086   0.69804

  Exact polarizability:  46.356  -1.852  44.316   0.002  -0.004  13.006
 Approx polarizability:  90.279   3.153  97.699   0.000   0.000  18.418

                     1                      2                      3
                    A"                     A"                     A"
 Frequencies --   585.3502               631.3308               661.1223
 Red. masses --     1.6231                 1.8438                 3.2931
 Frc consts  --     0.3277                 0.4330                 0.8480
 IR Inten    --   124.8956                18.7403                 1.7438
 Raman Activ --     0.0000                 0.0000                 0.0000

                     4                      5                      6
                    A"                     A"                     A"
 Frequencies --   725.8274               790.2298               857.9990
 Red. masses --     1.2419                 1.3650                 1.3582
 Frc consts  --     0.3855                 0.5022                 0.5891
 IR Inten    --    28.6608                35.2182                 4.3818
 Raman Activ --     0.0000                 0.0000                 0.0000

                     7                      8                      9
                    A'                     A'                     A'
 Frequencies --   881.9475               926.9062              1008.1312
 Red. masses --     6.2077                 4.2491                 2.4415
 Frc consts  --     2.8449                 2.1509                 1.4620
 IR Inten    --    12.1120                 2.5525                16.0321
 Raman Activ --     0.0000                 0.0000                 0.0000

                    10                     11                     12
                    A'                     A'                     A'
 Frequencies --  1042.5267              1057.5638              1116.8667
 Red. masses --     2.0704                 5.2394                 1.3753
 Frc consts  --     1.3258                 3.4526                 1.0108
 IR Inten    --    11.2609                21.0777                 2.0736
 Raman Activ --     0.0000                 0.0000                 0.0000

                    13                     14                     15
                    A'                     A'                     A'
 Frequencies --  1231.5956              1267.3798              1339.5694
 Red. masses --     2.2793                 1.9345                 1.8238
 Frc consts  --     2.0370                 1.8308                 1.9283
 IR Inten    --     4.0255                 6.9201                 8.2885
 Raman Activ --     0.0000                 0.0000                 0.0000

                    16                     17                     18
                    A'                     A'                     A'
 Frequencies --  1406.6976              1476.1808              3205.6754
 Red. masses --     2.3153                 2.4330                 1.0904
 Frc consts  --     2.6994                 3.1237                 6.6022
 IR Inten    --     5.0851                16.7472                 4.8555
 Raman Activ --     0.0000                 0.0000                 0.0000

                    19                     20                     21
                    A'                     A'                     A'
 Frequencies --  3208.8923              3230.9045              3455.5111
 Red. masses --     1.0951                 1.1061                 1.0813
 Frc consts  --     6.6437                 6.8030                 7.6069
 IR Inten    --     1.5057                 2.1278                23.3224
 Raman Activ --     0.0000                 0.0000                 0.0000

 - Thermochemistry -
 -------------------
 Temperature   298.150 Kelvin.  Pressure   1.00000 Atm.
 Atom  1 has atomic number  7 and mass  14.00307

 Molecular mass:    68.03745 amu.
 Principal axes and moments of inertia in atomic units:
                           1         2         3
     EIGENVALUES --   193.16389 198.98172 392.14561
           X            0.53982   0.84178   0.00000
           Y            0.84178  -0.53982   0.00000
           Z            0.00000   0.00000   1.00000
 THIS MOLECULE IS AN ASYMMETRIC TOP.
 ROTATIONAL SYMMETRY NUMBER  1.
 ROTATIONAL TEMPERATURES (KELVIN)      0.44839     0.43528     0.22087
 ROTATIONAL CONSTANTS (GHZ)            9.34306     9.06988     4.60222
 Zero-point vibrational energy     180087.1 (Joules/Mol)
                                   43.04185 (Kcal/Mol)
 WARNING-- EXPLICIT CONSIDERATION OF   1 DEGREES OF FREEDOM AS
           VIBRATIONS MAY CAUSE SIGNIFICANT ERROR
 VIBRATIONAL TEMPERATURES:    842.18   908.34   951.20  1044.30  1136.96
          (KELVIN)           1234.46  1268.92  1333.60  1450.47  1499.95
                             1521.59  1606.91  1771.98  1823.47  1927.33
                             2023.91  2123.88  4612.23  4616.85  4648.52
                             4971.68

 Zero-point correction=                           0.068592 (Hartree/Particle)
 Thermal correction to Energy=                    0.072388
 Thermal correction to Enthalpy=                  0.073333
 Thermal correction to Gibbs Free Energy=         0.042268
 Sum of electronic and zero-point Energies=           -224.810501
 Sum of electronic and thermal Energies=              -224.806704
 Sum of electronic and thermal Enthalpies=            -224.805760
 Sum of electronic and thermal Free Energies=         -224.836825

                     E (Thermal)             CV                S
                      KCAL/MOL        CAL/MOL-KELVIN    CAL/MOL-KELVIN
 TOTAL                   45.424             13.844             65.382
 ELECTRONIC               0.000              0.000              0.000
 TRANSLATIONAL            0.889              2.981             38.570
 ROTATIONAL               0.889              2.981             24.226
 VIBRATIONAL             43.647              7.882              2.586
 VIBRATION  1             0.942              1.063              0.476
                       Q            LOG10(Q)             LN(Q)
 TOTAL BOT       0.361713D-19        -19.441636        -44.766021
 TOTAL V=0       0.128255D+13         12.108075         27.879873
 VIB (BOT)       0.373112D-31        -31.428161        -72.366015
 VIB (BOT)  1    0.258932D+00         -0.586814         -1.351189
 VIB (V=0)       0.132297D+01          0.121550          0.279879
 VIB (V=0)  1    0.106307D+01          0.026561          0.061159
 ELECTRONIC      0.100000D+01          0.000000          0.000000
 TRANSLATIONAL   0.220588D+08          7.343582         16.909224
 ROTATIONAL      0.439484D+05          4.642943         10.690770
 ***** Axes restored to original set *****
 -------------------------------------------------------------------
 Center     Atomic                   Forces (Hartrees/Bohr)
 Number     Number              X              Y              Z
 -------------------------------------------------------------------
    1          7           0.000388815    0.000000000    0.000023618
    2          1           0.000002730    0.000000000   -0.000042460
    3          6           0.000418283    0.000000000   -0.000318267
    4          1          -0.000104457    0.000000000   -0.000038791
    5          6          -0.000369967    0.000000000    0.000052182
    6          1          -0.000033275    0.000000000    0.000092533
    7          1           0.000141218    0.000000000   -0.000018126
    8          6          -0.000401671    0.000000000   -0.000284490
    9          7          -0.000041675    0.000000000    0.000533799
 -------------------------------------------------------------------
 Cartesian Forces:  Max     0.000533799 RMS     0.000205544

 GradGradGradGradGradGradGradGradGradGradGradGradGradGradGradGradGradGrad
 Berny optimization.
 Internal  Forces:  Max     0.000341958 RMS     0.000108251
 Search for a local minimum.
 Step number   1 out of a maximum of  48
 All quantities printed in internal units (Hartrees-Bohrs-Radians)
 Second derivative matrix not updated -- analytic derivatives used.
     Eigenvalues ---    0.00656   0.01123   0.01921   0.02622   0.05956
     Eigenvalues ---    0.06148   0.09394   0.10230   0.10646   0.11124
     Eigenvalues ---    0.20298   0.21448   0.28217   0.33971   0.36234
     Eigenvalues ---    0.36291   0.36710   0.39980   0.42359   0.44422
     Eigenvalues ---    0.503081000.000001000.000001000.000001000.00000
     Eigenvalues --- 1000.000001000.000001000.000001000.000001000.00000
     Eigenvalues --- 1000.000001000.000001000.000001000.000001000.00000
     Eigenvalues --- 1000.000001000.000001000.00000
 Angle between quadratic step and forces=  19.26 degrees.
 Linear search not attempted -- first point.
 Iteration  1 RMS(Cart)=  0.00035099 RMS(Int)=  0.00000010
 Iteration  2 RMS(Cart)=  0.00000010 RMS(Int)=  0.00000001
 Variable       Old X    -DE/DX   Delta X   Delta X   Delta X     New X
                                 (Linear)    (Quad)   (Total)
    R1        2.67565   0.00030   0.00000   0.00135   0.00135   2.67700
    R2        2.53752  -0.00004   0.00000  -0.00001  -0.00001   2.53751
    R3        1.93086   0.00004   0.00000   0.00012   0.00012   1.93098
    R4        2.04495   0.00011   0.00000   0.00030   0.00030   2.04525
    R5        2.61773   0.00015   0.00000   0.00040   0.00040   2.61813
    R6        2.66078  -0.00027   0.00000  -0.00092  -0.00092   2.65986
    R7        2.04599   0.00009   0.00000   0.00018   0.00018   2.04617
    R8        2.04643   0.00014   0.00000   0.00041   0.00041   2.04684
    R9        2.64232  -0.00034   0.00000  -0.00118  -0.00118   2.64115
    A1        1.83733  -0.00008   0.00000  -0.00037  -0.00037   1.83696
    A2        2.30739  -0.00003   0.00000  -0.00043  -0.00043   2.30695
    A3        2.13379   0.00002   0.00000   0.00032   0.00032   2.13411
    A4        1.84201   0.00001   0.00000   0.00012   0.00012   1.84212
    A5        1.93194  -0.00016   0.00000  -0.00058  -0.00058   1.93135
    A6        2.11457   0.00004   0.00000  -0.00026  -0.00026   2.11431
    A7        2.23668   0.00012   0.00000   0.00084   0.00084   2.23752
    A8        2.20209  -0.00004   0.00000  -0.00033  -0.00033   2.20176
    A9        1.94220   0.00007   0.00000   0.00029   0.00029   1.94248
   A10        2.13890  -0.00003   0.00000   0.00004   0.00004   2.13894
   A11        2.19358  -0.00009   0.00000  -0.00030  -0.00030   2.19327
   A12        2.21830  -0.00008   0.00000  -0.00024  -0.00024   2.21806
   A13        1.87131   0.00016   0.00000   0.00054   0.00054   1.87185
    D1        0.00000   0.00000   0.00000   0.00000   0.00000   0.00000
    D2        3.14159   0.00000   0.00000   0.00000   0.00000   3.14159
    D3        3.14159   0.00000   0.00000   0.00000   0.00000   3.14159
    D4        0.00000   0.00000   0.00000   0.00000   0.00000   0.00000
    D5        3.14159   0.00000   0.00000   0.00000   0.00000   3.14159
    D6        0.00000   0.00000   0.00000   0.00000   0.00000   0.00000
    D7        0.00000   0.00000   0.00000   0.00000   0.00000   0.00000
    D8        3.14159   0.00000   0.00000   0.00000   0.00000   3.14159
    D9        0.00000   0.00000   0.00000   0.00000   0.00000   0.00000
   D10        3.14159   0.00000   0.00000   0.00000   0.00000   3.14159
   D11        3.14159   0.00000   0.00000   0.00000   0.00000   3.14159
   D12        0.00000   0.00000   0.00000   0.00000   0.00000   0.00000
   D13        3.14159   0.00000   0.00000   0.00000   0.00000   3.14159
   D14        0.00000   0.00000   0.00000   0.00000   0.00000   0.00000
   D15        0.00000   0.00000   0.00000   0.00000   0.00000   0.00000
   D16        3.14159   0.00000   0.00000   0.00000   0.00000   3.14159
         Item               Value     Threshold  Converged?
 Maximum Force            0.000342     0.000450     YES
 RMS     Force            0.000108     0.000300     YES
 Maximum Displacement     0.000791     0.001800     YES
 RMS     Displacement     0.000351     0.001200     YES
 Predicted change in Energy=-8.153207D-07
 Optimization completed.
    -- Stationary point found.
                         ----------------------------
                         !   Optimized Parameters   !
                         ! (Angstroms and Degrees)  !
 ------------------------                            -------------------------
 ! Name  Definition              Value          Derivative Info.             !
 -----------------------------------------------------------------------------
 ! R1    R(1,5)                  1.4159         -DE/DX =    0.0003           !
 ! R2    R(1,8)                  1.3428         -DE/DX =    0.               !
 ! R3    R(2,9)                  1.0218         -DE/DX =    0.               !
 ! R4    R(3,4)                  1.0821         -DE/DX =    0.0001           !
 ! R5    R(3,5)                  1.3852         -DE/DX =    0.0002           !
 ! R6    R(3,9)                  1.408          -DE/DX =   -0.0003           !
 ! R7    R(5,6)                  1.0827         -DE/DX =    0.0001           !
 ! R8    R(7,8)                  1.0829         -DE/DX =    0.0001           !
 ! R9    R(8,9)                  1.3983         -DE/DX =   -0.0003           !
 ! A1    A(5,1,8)              105.2711         -DE/DX =   -0.0001           !
 ! A2    A(4,3,5)              132.2036         -DE/DX =    0.               !
 ! A3    A(4,3,9)              122.257          -DE/DX =    0.               !
 ! A4    A(5,3,9)              105.5393         -DE/DX =    0.               !
 ! A5    A(1,5,3)              110.6917         -DE/DX =   -0.0002           !
 ! A6    A(1,5,6)              121.1558         -DE/DX =    0.               !
 ! A7    A(3,5,6)              128.1525         -DE/DX =    0.0001           !
 ! A8    A(1,8,7)              126.1704         -DE/DX =    0.               !
 ! A9    A(1,8,9)              111.2796         -DE/DX =    0.0001           !
 ! A10   A(7,8,9)              122.55           -DE/DX =    0.               !
 ! A11   A(2,9,3)              125.6826         -DE/DX =   -0.0001           !
 ! A12   A(2,9,8)              127.0991         -DE/DX =   -0.0001           !
 ! A13   A(3,9,8)              107.2182         -DE/DX =    0.0002           !
 ! D1    D(8,1,5,3)              0.             -DE/DX =    0.               !
 ! D2    D(8,1,5,6)            180.             -DE/DX =    0.               !
 ! D3    D(5,1,8,7)            180.             -DE/DX =    0.               !
 ! D4    D(5,1,8,9)              0.             -DE/DX =    0.               !
 ! D5    D(4,3,5,1)            180.             -DE/DX =    0.               !
 ! D6    D(4,3,5,6)              0.             -DE/DX =    0.               !
 ! D7    D(9,3,5,1)              0.             -DE/DX =    0.               !
 ! D8    D(9,3,5,6)            180.             -DE/DX =    0.               !
 ! D9    D(4,3,9,2)              0.             -DE/DX =    0.               !
 ! D10   D(4,3,9,8)            180.             -DE/DX =    0.               !
 ! D11   D(5,3,9,2)            180.             -DE/DX =    0.               !
 ! D12   D(5,3,9,8)              0.             -DE/DX =    0.               !
 ! D13   D(1,8,9,2)            180.             -DE/DX =    0.               !
 ! D14   D(1,8,9,3)              0.             -DE/DX =    0.               !
 ! D15   D(7,8,9,2)              0.             -DE/DX =    0.               !
 ! D16   D(7,8,9,3)            180.             -DE/DX =    0.               !
 -----------------------------------------------------------------------------
 GradGradGradGradGradGradGradGradGradGradGradGradGradGradGradGradGradGrad

 1\1\ NATIONAL INSTITUTE OF STANDARDS AND TECHNOLOGY-NEVA\Freq\RBLYP\3-
 21G*\C3H4N2\RDJ3\02-May-2000\0\\#N GEOM=ALLCHECK GUESS=TCHECK RBLYP/3-
 21G* FREQ\\1H imidazole C3H4N2 casno=288324\\0,1\N,0.5090331368,0.,1.1
 51746756\H,0.4861976923,0.,-2.0929748478\C,-1.0413206367,0.,-0.5529853
 174\H,-1.9276882019,0.,-1.1737747237\C,-0.8677701577,0.,0.821344535\H,
 -1.6286613092,0.,1.5915811907\H,2.2291152065,0.,-0.1649079148\C,1.1552
 23489,0.,-0.0253425636\N,0.2572869268,0.,-1.0971787028\\Version=SGI64-
 G98RevA.7\State=1-A'\HF=-224.8790928\RMSD=3.246e-09\RMSF=2.055e-04\Dip
 ole=-0.1187362,0.,-1.4595649\DipoleDeriv=-0.3211653,-0.000153,0.025053
 1,0.0001446,-0.2588831,-0.0002607,0.0106236,-0.0000679,-0.4645905,0.18
 92384,-0.0000407,-0.0049367,-0.0000107,0.3626959,-0.0000448,0.0012145,
 0.0001004,0.1179833,-0.0232727,-0.0000469,-0.2023488,-0.0003208,-0.114
 7876,0.000205,-0.0236518,-0.0000346,0.1941406,0.0177834,0.000012,-0.04
 27306,0.0000234,0.1852041,-0.0000047,-0.0768108,-0.0000049,0.0323637,0
 .1251633,0.0002572,-0.1576293,0.000125,-0.1419751,-0.0001015,-0.073707
 3,0.0000183,0.0787931,0.0009249,-0.0000168,0.0753135,-0.0000458,0.1502
 185,0.0000544,0.0724167,0.0000139,0.0296238,-0.0313594,0.0002409,0.018
 4042,-0.0000254,0.168921,0.0000438,0.0430078,-0.00005,0.0680782,0.1278
 963,-0.0002667,0.1275524,-0.0003075,-0.0385694,0.0004229,-0.0356365,0.
 0002274,0.4111166,-0.085208,0.000014,0.1613219,0.000417,-0.3128242,-0.
 0003144,0.0825443,-0.0002025,-0.467508\Polar=47.0729268,0.0025779,13.0
 060875,-1.2053578,-0.004006,43.5994677\PG=CS [SG(C3H4N2)]\NImag=0\\0.3
 8537741,0.00000506,0.09740977,-0.05178283,-0.00000033,0.45404889,-0.00
 312654,0.00000270,-0.00726683,0.07615682,0.00000224,0.00602878,0.00000
 196,0.00000051,0.01269891,-0.00248047,-0.00000693,-0.00387568,-0.08178
 875,-0.00000209,0.40530134,-0.03705783,-0.00000027,-0.01652385,0.00558
 678,-0.00000131,-0.00570957,0.67333151,-0.00000702,0.01704219,0.000000
 53,-0.00000180,-0.00535529,0.00000055,-0.00001189,0.11075165,-0.078123
 53,0.00000336,-0.02544043,0.02856873,0.00000115,-0.00076004,0.17287854
 ,0.00000224,0.66743342,0.00122919,0.00000096,0.00166285,-0.00010040,0.
 00000150,0.00052132,-0.24816131,0.00000789,-0.13681891,0.26153700,0.00
 000099,0.00651222,0.00000010,0.00000031,-0.00114110,-0.00000085,0.0000
 0017,-0.02140374,0.00000008,-0.00000035,0.01810912,-0.00332027,0.00000
 146,-0.00409462,-0.00082864,0.00000105,0.00000784,-0.14689480,0.000004
 08,-0.15598180,0.14788068,-0.00000020,0.15142765,-0.17070199,-0.000009
 68,-0.00458092,-0.00757779,-0.00000371,-0.00350234,-0.09234339,0.00001
 112,-0.01454974,0.00467228,-0.00000124,-0.02266141,0.57127630,0.000004
 71,-0.06643579,0.00000148,0.00000103,0.00285763,-0.00000150,0.00000459
 ,-0.06570983,-0.00000040,-0.00000218,-0.00066041,-0.00000086,-0.000007
 11,0.12868561,-0.03279238,0.00000034,-0.08486228,0.00296771,-0.0000028
 9,0.00083859,-0.02798061,-0.00001077,-0.33960081,0.00311072,0.00000043
 ,0.00166174,-0.18277835,0.00000170,0.72353988,-0.01910433,0.00000042,0
 .01825255,0.00075185,0.00000038,0.00014365,0.00798337,-0.00000007,-0.0
 0714852,-0.00019435,0.00000010,0.00084380,-0.18827288,0.00000004,0.146
 11087,0.20298138,-0.00000377,-0.00505877,-0.00000122,-0.00000145,0.001
 53636,0.00000487,0.00000188,0.00013295,-0.00000172,-0.00000103,-0.0022
 1318,-0.00000085,0.00000554,-0.02802775,0.00000223,-0.00000030,0.02232
 305,-0.00900502,-0.00000072,0.01025740,0.00110851,-0.00000025,0.000093
 86,0.02151060,0.00000032,-0.00865541,-0.00058048,-0.00000012,-0.000194
 20,0.14709095,0.00000008,-0.21105429,-0.15461924,0.00000018,0.21278180
 ,-0.00686636,-0.00000888,0.00194656,-0.00058821,-0.00000389,-0.0007818
 0,0.00162139,0.00000792,-0.00231528,-0.00024779,-0.00000172,0.00026526
 ,0.00138621,-0.00000591,0.00130141,-0.00024450,0.00000766,-0.00006445,
 0.35715238,-0.00000141,-0.00501112,-0.00000069,-0.00000033,-0.00111152
 ,0.00000067,-0.00000079,0.00253633,-0.00000029,0.00000019,0.00151755,-
 0.00000004,0.00000246,0.00660419,0.00000011,-0.00000015,0.00114082,0.0
 0000014,0.00000199,0.01955006,0.02796980,0.00000201,-0.00237309,0.0004
 9000,0.00000079,-0.00000942,-0.00075366,-0.00000179,-0.00548446,-0.000
 87501,0.00000031,0.00112877,0.00220937,0.00000124,-0.00346237,0.001239
 29,-0.00000138,0.00075035,-0.03740801,-0.00000044,0.05863444,-0.141342
 67,0.00001342,0.08048677,0.01617997,0.00000375,0.01600312,-0.09585912,
 -0.00001053,-0.00196261,-0.00202027,0.00000172,0.00455782,-0.09991228,
 0.00000666,0.02392711,-0.00433578,-0.00000823,-0.00410173,-0.34013868,
 -0.00000227,0.03650036,0.83373964,-0.00001111,-0.07119522,-0.00000110,
 -0.00000434,-0.00620937,0.00000995,-0.00000482,0.01671271,-0.00000334,
 0.00000093,0.00289913,-0.00000104,0.00001888,0.00943376,-0.00000215,-0
 .00000033,0.00501720,0.00000051,0.00001641,-0.02337991,-0.00000366,-0.
 00002288,0.12651859,0.12193142,-0.00000503,-0.24241085,-0.01694820,-0.
 00000372,-0.00979828,-0.04574663,0.00000807,-0.00693929,0.00309210,-0.
 00000087,-0.00605735,0.06429360,-0.00000615,-0.01740162,-0.00151075,0.
 00000439,0.00052428,0.03198626,0.00000223,-0.05377605,-0.09195453,0.00
 001203,0.49573259,-0.00840690,-0.00000374,-0.02219431,-0.08728247,0.00
 000053,0.07759484,-0.21510141,0.00000438,0.03947131,-0.01671434,0.0000
 0005,0.02015757,-0.01852649,-0.00000184,0.06613354,0.00043527,-0.00000
 032,-0.00133916,-0.01207442,0.00000031,-0.02937215,-0.16631084,0.00000
 726,-0.06514327,0.52398161,0.00001032,0.02070794,-0.00000071,0.0000033
 8,-0.00930441,-0.00000466,0.00001244,-0.05470696,-0.00000106,-0.000007
 90,-0.00361959,-0.00000362,-0.00001630,0.01325258,0.00001100,-0.000000
 09,0.00514932,-0.00000014,-0.00001359,-0.00184641,0.00000293,0.0000183
 8,-0.05979689,-0.00001095,-0.00000663,0.09016441,0.02760326,0.00000584
 ,-0.10124934,0.07369746,0.00000400,-0.39179819,0.04921996,-0.00000323,
 -0.12457118,-0.01799325,0.00000112,0.01210198,0.01447885,0.00000441,-0
 .06965886,-0.00331165,-0.00000651,-0.00450378,0.00507004,-0.00000169,0
 .00459184,-0.06345631,-0.00001121,-0.15987344,-0.08530838,0.00000723,0
 .83496095\\-0.00038881,0.,-0.00002362,-0.00000273,0.,0.00004246,-0.000
 41828,0.,0.00031827,0.00010446,0.,0.00003879,0.00036997,0.,-0.00005218
 ,0.00003327,0.,-0.00009253,-0.00014122,0.,0.00001813,0.00040167,0.,0.0
 0028449,0.00004168,0.,-0.00053380\\\@

 IT'S WHAT A FELLER THINKS HE KNOWS THAT HURTS HIM...
                    ------
           KIN HUBBARD
 Job cpu time:  0 days  0 hours  5 minutes  7.2 seconds.
 File lengths (MBytes):  RWF=   10 Int=    0 D2E=    0 Chk=    4 Scr=    1
 Normal termination of Gaussian 98.
