 Gaussian 98, Revision A.7,
 Gaussian 98:  SGI64-G98RevA.7 11-Apr-1999

 ---------------------
 #CISD/6-31G* OPT FREQ
 ---------------------

 --------------------------------
 1H imidazole C3H4N2 casno=288324
 --------------------------------
 Symbolic Z-matrix:
 Charge =  0 Multiplicity = 1

 SCF Done:  E(RHF) =  -224.814429221     A.U. after   15 cycles
 SCF Done:  E(RHF) =  -224.813797596     A.U. after   11 cycles
 SCF Done:  E(RHF) =  -224.813877608     A.U. after    9 cycles
 SCF Done:  E(RHF) =  -224.813881272     A.U. after    9 cycles
 Optimization completed.
    -- Stationary point found.
 Normal termination of Gaussian 98.

 -----------------------------------------------------
 #N Geom=AllCheck Guess=TCheck RCISD(FC)/6-31G(d) Freq
 -----------------------------------------------------

 1H imidazole C3H4N2 casno=288324
 --------------------------------
 Redundant internal coordinates taken from checkpointfile:
 /wrk/Gau-232388.chk
 Charge =  0 Multiplicity = 1

                         Standard orientation:
 ---------------------------------------------------------------------
 Center     Atomic     Atomic              Coordinates (Angstroms)
 Number     Number      Type              X           Y           Z
 ---------------------------------------------------------------------
    1          7             0       -0.741562   -0.977481    0.000000
    2          1             0       -0.011608    2.101013    0.000000
    3          6             0        1.113112    0.294993    0.000000
    4          1             0        2.109836    0.694299    0.000000
    5          6             0        0.632958   -0.976810    0.000000
    6          1             0        1.190904   -1.896045    0.000000
    7          1             0       -2.088512    0.658671    0.000000
    8          6             0       -1.081018    0.280631    0.000000
    9          7             0        0.000000    1.098793    0.000000
 ---------------------------------------------------------------------

 SCF Done:  E(RHF) =  -224.813881272     A.U. after    1 cycles
 SCF Done:  E(RHF) =  -224.813881572     A.U. after    8 cycles
 SCF Done:  E(RHF) =  -224.813879076     A.U. after    8 cycles
 SCF Done:  E(RHF) =  -224.813913933     A.U. after    9 cycles
 SCF Done:  E(RHF) =  -224.813846144     A.U. after    9 cycles
 SCF Done:  E(RHF) =  -224.813881042     A.U. after    7 cycles
 SCF Done:  E(RHF) =  -224.813892750     A.U. after    9 cycles
 SCF Done:  E(RHF) =  -224.813866401     A.U. after    9 cycles
 SCF Done:  E(RHF) =  -224.813860699     A.U. after    9 cycles
 SCF Done:  E(RHF) =  -224.813899006     A.U. after    9 cycles
 SCF Done:  E(RHF) =  -224.813880944     A.U. after    7 cycles
 SCF Done:  E(RHF) =  -224.813871585     A.U. after    8 cycles
 SCF Done:  E(RHF) =  -224.813888447     A.U. after    8 cycles
 SCF Done:  E(RHF) =  -224.813884084     A.U. after    8 cycles
 SCF Done:  E(RHF) =  -224.813874572     A.U. after    8 cycles
 SCF Done:  E(RHF) =  -224.813881095     A.U. after    7 cycles

  The electronic state is 1-A'.
 Alpha  occ. eigenvalues --  -15.62254 -15.53992 -11.29064 -11.25674 -11.23607
 Alpha  occ. eigenvalues --   -1.34137  -1.16356  -1.00553  -0.82506  -0.79592
 Alpha  occ. eigenvalues --   -0.75648  -0.60580  -0.59876  -0.59458  -0.56467
 Alpha  occ. eigenvalues --   -0.42890  -0.39228  -0.31699
 Alpha virt. eigenvalues --    0.19335   0.21849   0.24739   0.28357   0.29859
 Alpha virt. eigenvalues --    0.31911   0.39787   0.41626   0.48954   0.51672
 Alpha virt. eigenvalues --    0.68213   0.71460   0.76691   0.80458   0.80831

                     1                      2                      3
                    A"                     A"                     A"
 Frequencies --   527.1167               666.9617               708.0785
 Red. masses --     1.5554                 2.4069                 2.8561
 Frc consts  --     0.2546                 0.6308                 0.8437
 IR Inten    --   122.9823                15.1898                 6.5960
 Raman Activ --     0.0000                 0.0000                 0.0000

                     4                      5                      6
                    A"                     A"                     A"
 Frequencies --   774.9624               880.7729               908.4659
 Red. masses --     1.2235                 1.3501                 1.3071
 Frc consts  --     0.4329                 0.6171                 0.6356
 IR Inten    --    38.4673                28.4579                 1.8142
 Raman Activ --     0.0000                 0.0000                 0.0000

                     7                      8                      9
                    A'                     A'                     A'
 Frequencies --   946.8057               984.4208              1137.2391
 Red. masses --     5.5303                 4.7586                 1.5604
 Frc consts  --     2.9209                 2.7170                 1.1890
 IR Inten    --     7.2100                 1.9025                44.2280
 Raman Activ --     0.0000                 0.0000                 0.0000

                    10                     11                     12
                    A'                     A'                     A'
 Frequencies --  1164.9582              1216.6558              1225.1285
 Red. masses --     1.4616                 1.8002                 2.8024
 Frc consts  --     1.1687                 1.5700                 2.4782
 IR Inten    --    15.1148                 1.2510                 7.2078
 Raman Activ --     0.0000                 0.0000                 0.0000

                    13                     14                     15
                    A'                     A'                     A'
 Frequencies --  1358.2204              1461.6581              1540.4776
 Red. masses --     1.3601                 3.3739                 2.9852
 Frc consts  --     1.4783                 4.2469                 4.1738
 IR Inten    --     0.6354                10.2124                23.9900
 Raman Activ --     0.0000                 0.0000                 0.0000

                    16                     17                     18
                    A'                     A'                     A'
 Frequencies --  1611.2522              1672.9137              3378.7049
 Red. masses --     3.4141                 3.7087                 1.0929
 Frc consts  --     5.2221                 6.1153                 7.3505
 IR Inten    --    23.1381                17.2841                 7.2514
 Raman Activ --     0.0000                 0.0000                 0.0000

                    19                     20                     21
                    A'                     A'                     A'
 Frequencies --  3381.1724              3408.6862              3804.6262
 Red. masses --     1.0979                 1.1068                 1.0824
 Frc consts  --     7.3950                 7.5767                 9.2311
 IR Inten    --     0.9452                 2.0354                80.9790
 Raman Activ --     0.0000                 0.0000                 0.0000

 - Thermochemistry -
 -------------------
 Temperature   298.150 Kelvin.  Pressure   1.00000 Atm.
 Atom  1 has atomic number  7 and mass  14.00307

 Molecular mass:    68.03745 amu.
 Principal axes and moments of inertia in atomic units:
                           1         2         3
     EIGENVALUES --   183.02177 189.70988 372.73165
           X            0.48417   0.87497   0.00000
           Y            0.87497  -0.48417   0.00000
           Z            0.00000   0.00000   1.00000
 THIS MOLECULE IS AN ASYMMETRIC TOP.
 ROTATIONAL SYMMETRY NUMBER  1.
 ROTATIONAL TEMPERATURES (KELVIN)      0.47324     0.45656     0.23237
 ROTATIONAL CONSTANTS (GHZ)            9.86080     9.51316     4.84193
 Zero-point vibrational energy     195944.0 (Joules/Mol)
                                   46.83175 (Kcal/Mol)
 WARNING-- EXPLICIT CONSIDERATION OF   1 DEGREES OF FREEDOM AS
           VIBRATIONS MAY CAUSE SIGNIFICANT ERROR
 VIBRATIONAL TEMPERATURES:    758.40   959.60  1018.76  1114.99  1267.23
          (KELVIN)           1307.07  1362.23  1416.35  1636.22  1676.11
                             1750.49  1762.68  1954.17  2102.99  2216.39
                             2318.22  2406.94  4861.17  4864.72  4904.31
                             5473.98

 Zero-point correction=                           0.074631 (Hartree/Particle)
 Thermal correction to Energy=                    0.078281
 Thermal correction to Enthalpy=                  0.079225
 Thermal correction to Gibbs Free Energy=         0.048414
 Sum of electronic and zero-point Energies=           -225.352559
 Sum of electronic and thermal Energies=              -225.348910
 Sum of electronic and thermal Enthalpies=            -225.347965
 Sum of electronic and thermal Free Energies=         -225.378777

                     E (Thermal)             CV                S
                      KCAL/MOL        CAL/MOL-KELVIN    CAL/MOL-KELVIN
 TOTAL                   49.122             12.627             64.848
 ELECTRONIC               0.000              0.000              0.000
 TRANSLATIONAL            0.889              2.981             38.570
 ROTATIONAL               0.889              2.981             24.074
 VIBRATIONAL             47.345              6.665              2.203
 VIBRATION  1             0.882              1.190              0.594
                       Q            LOG10(Q)             LN(Q)
 TOTAL BOT       0.538597D-22        -22.268736        -51.275659
 TOTAL V=0       0.114544D+13         12.058971         27.766807
 VIB (BOT)       0.599567D-34        -34.222162        -78.799440
 VIB (BOT)  1    0.304219D+00         -0.516813         -1.190006
 VIB (V=0)       0.127510D+01          0.105545          0.243026
 VIB (V=0)  1    0.108528D+01          0.035541          0.081835
 ELECTRONIC      0.100000D+01          0.000000          0.000000
 TRANSLATIONAL   0.220588D+08          7.343582         16.909224
 ROTATIONAL      0.407234D+05          4.609844         10.614558
 ***** Axes restored to original set *****
 -------------------------------------------------------------------
 Center     Atomic                   Forces (Hartrees/Bohr)
 Number     Number              X              Y              Z
 -------------------------------------------------------------------
    1          7          -0.000018642    0.000000000   -0.000016913
    2          1           0.000010235    0.000000000   -0.000026725
    3          6          -0.000192685    0.000000000   -0.000142173
    4          1          -0.000051963    0.000000000   -0.000021751
    5          6           0.000088074    0.000000000    0.000126416
    6          1          -0.000052370    0.000000000    0.000004404
    7          1           0.000080277    0.000000000    0.000020816
    8          6           0.000097640    0.000000000   -0.000065806
    9          7           0.000039433    0.000000000    0.000121733
 -------------------------------------------------------------------
 Cartesian Forces:  Max     0.000192685 RMS     0.000068200

 GradGradGradGradGradGradGradGradGradGradGradGradGradGradGradGradGradGrad
 Berny optimization.
 Internal  Forces:  Max     0.000126268 RMS     0.000048551
 Search for a local minimum.
 Step number   1 out of a maximum of  48
 All quantities printed in internal units (Hartrees-Bohrs-Radians)
 Second derivative matrix not updated -- analytic derivatives used.
     Eigenvalues ---    0.00525   0.01211   0.02300   0.03032   0.06263
     Eigenvalues ---    0.06612   0.10848   0.11492   0.12051   0.13050
     Eigenvalues ---    0.25195   0.26957   0.38739   0.40145   0.40477
     Eigenvalues ---    0.40685   0.45998   0.48732   0.51560   0.53802
     Eigenvalues ---    0.651241000.000001000.000001000.000001000.00000
     Eigenvalues --- 1000.000001000.000001000.000001000.000001000.00000
     Eigenvalues --- 1000.000001000.000001000.000001000.000001000.00000
     Eigenvalues --- 1000.000001000.000001000.00000
 Angle between quadratic step and forces=  28.60 degrees.
 Linear search not attempted -- first point.
 Iteration  1 RMS(Cart)=  0.00015834 RMS(Int)=  0.00000002
 Iteration  2 RMS(Cart)=  0.00000002 RMS(Int)=  0.00000000
 Variable       Old X    -DE/DX   Delta X   Delta X   Delta X     New X
                                 (Linear)    (Quad)   (Total)
    R1        2.59747   0.00004   0.00000  -0.00007  -0.00007   2.59740
    R2        2.46251   0.00004   0.00000   0.00011   0.00011   2.46262
    R3        1.89405   0.00003   0.00000   0.00007   0.00007   1.89412
    R4        2.02906   0.00006   0.00000   0.00012   0.00012   2.02918
    R5        2.56894   0.00012   0.00000   0.00029   0.00029   2.56922
    R6        2.59458   0.00013   0.00000   0.00023   0.00023   2.59482
    R7        2.03205   0.00004   0.00000   0.00011   0.00011   2.03215
    R8        2.03351   0.00008   0.00000   0.00017   0.00017   2.03368
    R9        2.56195   0.00004   0.00000  -0.00001  -0.00001   2.56194
    A1        1.83385   0.00006   0.00000   0.00014   0.00014   1.83399
    A2        2.31283   0.00004   0.00000   0.00014   0.00014   2.31297
    A3        2.13514   0.00006   0.00000   0.00018   0.00018   2.13532
    A4        1.83522  -0.00009   0.00000  -0.00032  -0.00032   1.83490
    A5        1.93228   0.00001   0.00000   0.00010   0.00010   1.93238
    A6        2.11584   0.00003   0.00000   0.00024   0.00024   2.11607
    A7        2.23507  -0.00004   0.00000  -0.00034  -0.00034   2.23473
    A8        2.19330   0.00001   0.00000  -0.00012  -0.00012   2.19318
    A9        1.95512  -0.00007   0.00000  -0.00022  -0.00022   1.95490
   A10        2.13476   0.00007   0.00000   0.00035   0.00035   2.13510
   A11        2.20780  -0.00004   0.00000  -0.00013  -0.00013   2.20766
   A12        2.20708  -0.00005   0.00000  -0.00017  -0.00017   2.20691
   A13        1.86831   0.00009   0.00000   0.00030   0.00030   1.86861
    D1        0.00000   0.00000   0.00000   0.00000   0.00000   0.00000
    D2        3.14159   0.00000   0.00000   0.00000   0.00000   3.14159
    D3        3.14159   0.00000   0.00000   0.00000   0.00000   3.14159
    D4        0.00000   0.00000   0.00000   0.00000   0.00000   0.00000
    D5        3.14159   0.00000   0.00000   0.00000   0.00000   3.14159
    D6        0.00000   0.00000   0.00000   0.00000   0.00000   0.00000
    D7        0.00000   0.00000   0.00000   0.00000   0.00000   0.00000
    D8        3.14159   0.00000   0.00000   0.00000   0.00000   3.14159
    D9        0.00000   0.00000   0.00000   0.00000   0.00000   0.00000
   D10        3.14159   0.00000   0.00000   0.00000   0.00000   3.14159
   D11        3.14159   0.00000   0.00000   0.00000   0.00000   3.14159
   D12        0.00000   0.00000   0.00000   0.00000   0.00000   0.00000
   D13        3.14159   0.00000   0.00000   0.00000   0.00000   3.14159
   D14        0.00000   0.00000   0.00000   0.00000   0.00000   0.00000
   D15        0.00000   0.00000   0.00000   0.00000   0.00000   0.00000
   D16        3.14159   0.00000   0.00000   0.00000   0.00000   3.14159
         Item               Value     Threshold  Converged?
 Maximum Force            0.000126     0.000450     YES
 RMS     Force            0.000049     0.000300     YES
 Maximum Displacement     0.000516     0.001800     YES
 RMS     Displacement     0.000158     0.001200     YES
 Predicted change in Energy=-1.241523D-07
 Optimization completed.
    -- Stationary point found.
                         ----------------------------
                         !   Optimized Parameters   !
                         ! (Angstroms and Degrees)  !
 ------------------------                            -------------------------
 ! Name  Definition              Value          Derivative Info.             !
 -----------------------------------------------------------------------------
 ! R1    R(1,5)                  1.3745         -DE/DX =    0.               !
 ! R2    R(1,8)                  1.3031         -DE/DX =    0.               !
 ! R3    R(2,9)                  1.0023         -DE/DX =    0.               !
 ! R4    R(3,4)                  1.0737         -DE/DX =    0.0001           !
 ! R5    R(3,5)                  1.3594         -DE/DX =    0.0001           !
 ! R6    R(3,9)                  1.373          -DE/DX =    0.0001           !
 ! R7    R(5,6)                  1.0753         -DE/DX =    0.               !
 ! R8    R(7,8)                  1.0761         -DE/DX =    0.0001           !
 ! R9    R(8,9)                  1.3557         -DE/DX =    0.               !
 ! A1    A(5,1,8)              105.0717         -DE/DX =    0.0001           !
 ! A2    A(4,3,5)              132.5154         -DE/DX =    0.               !
 ! A3    A(4,3,9)              122.3343         -DE/DX =    0.0001           !
 ! A4    A(5,3,9)              105.1503         -DE/DX =   -0.0001           !
 ! A5    A(1,5,3)              110.7114         -DE/DX =    0.               !
 ! A6    A(1,5,6)              121.2285         -DE/DX =    0.               !
 ! A7    A(3,5,6)              128.0601         -DE/DX =    0.               !
 ! A8    A(1,8,7)              125.6671         -DE/DX =    0.               !
 ! A9    A(1,8,9)              112.0204         -DE/DX =   -0.0001           !
 ! A10   A(7,8,9)              122.3125         -DE/DX =    0.0001           !
 ! A11   A(2,9,3)              126.4974         -DE/DX =    0.               !
 ! A12   A(2,9,8)              126.4564         -DE/DX =    0.               !
 ! A13   A(3,9,8)              107.0462         -DE/DX =    0.0001           !
 ! D1    D(8,1,5,3)              0.             -DE/DX =    0.               !
 ! D2    D(8,1,5,6)            180.             -DE/DX =    0.               !
 ! D3    D(5,1,8,7)            180.             -DE/DX =    0.               !
 ! D4    D(5,1,8,9)              0.             -DE/DX =    0.               !
 ! D5    D(4,3,5,1)            180.             -DE/DX =    0.               !
 ! D6    D(4,3,5,6)              0.             -DE/DX =    0.               !
 ! D7    D(9,3,5,1)              0.             -DE/DX =    0.               !
 ! D8    D(9,3,5,6)            180.             -DE/DX =    0.               !
 ! D9    D(4,3,9,2)              0.             -DE/DX =    0.               !
 ! D10   D(4,3,9,8)            180.             -DE/DX =    0.               !
 ! D11   D(5,3,9,2)            180.             -DE/DX =    0.               !
 ! D12   D(5,3,9,8)              0.             -DE/DX =    0.               !
 ! D13   D(1,8,9,2)            180.             -DE/DX =    0.               !
 ! D14   D(1,8,9,3)              0.             -DE/DX =    0.               !
 ! D15   D(7,8,9,2)              0.             -DE/DX =    0.               !
 ! D16   D(7,8,9,3)            180.             -DE/DX =    0.               !
 -----------------------------------------------------------------------------
 GradGradGradGradGradGradGradGradGradGradGradGradGradGradGradGradGradGrad

 1\1\ NATIONAL INSTITUTE OF STANDARDS AND TECHNOLOGY-TAY\Freq\RCISD-FC\
 6-31G(d)\C3H4N2\RDJ3\06-Aug-1999\0\\#N GEOM=ALLCHECK GUESS=TCHECK RCIS
 D(FC)/6-31G(D) FREQ\\1H imidazole C3H4N2 casno=288324\\0,1\N,0.4983401
 555,0.,1.1211783549\H,0.4918350084,0.,-2.0426666489\C,-1.0161380233,0.
 ,-0.5417599818\H,-1.8951146883,0.,-1.1584476293\C,-0.8395919421,0.,0.8
 061511852\H,-1.5929923726,0.,1.5734087966\H,2.1838010725,0.,-0.1635362
 709\C,1.1165488062,0.,-0.0259469926\N,0.2513109781,0.,-1.0696674281\\V
 ersion=SGI64-G98RevA.7\State=1-A'\HF=-224.8138813\MP2=-225.5181094\MP3
 =-225.5325927\CISD=-225.4271906\RMSD=1.126e-09\RMSF=6.820e-05\Dipole=-
 0.119416,0.,-1.5234901\DipoleDeriv=-0.4476598,0.,0.0178573,0.,-0.34877
 56,0.,0.0266629,0.,-0.6052298,0.1996756,0.,-0.0056615,0.,0.3686979,0.,
 -0.007003,0.,0.2448396,0.0333056,0.,-0.2452219,0.,-0.1118187,0.,-0.036
 3591,0.,0.1947516,0.0209873,0.,-0.0404718,0.,0.1836578,0.,-0.060261,0.
 ,0.0479156,0.2158771,0.,-0.0608128,0.,-0.110002,0.,-0.1062625,0.,0.115
 3045,-0.0066139,0.,0.0659071,0.,0.1491766,0.,0.0763398,0.,0.0291984,-0
 .0279373,0.,0.0316594,0.,0.1462776,0.,0.0328658,0.,0.0698195,0.2083035
 ,0.,0.0923241,0.,0.0684588,0.,0.0102378,0.,0.6076437,-0.1967619,0.,0.1
 441398,0.,-0.3458026,0.,0.0640429,0.,-0.7040436\PG=CS [SG(C3H4N2)]\NIm
 ag=0\\0.54745776,0.,0.11257058,-0.07300754,0.,0.65687401,-0.00304955,0
 .,-0.00907919,0.09031645,0.,0.00758942,0.,0.,0.01180007,-0.00414400,0.
 ,-0.00314999,-0.10486312,0.,0.48825644,-0.03291821,0.,-0.01385720,0.00
 827634,0.,-0.00263327,0.81587171,0.,0.01644648,0.,0.,-0.00885894,0.,0.
 ,0.11567790,-0.09665959,0.,-0.02022178,0.03035541,0.,-0.00072582,0.170
 95389,0.,0.83454977,0.00207680,0.,0.00088418,0.00004796,0.,0.00013361,
 -0.27715144,0.,-0.14918343,0.29176370,0.,0.00826198,0.,0.,-0.00103088,
 0.,0.,-0.02303126,0.,0.,0.02046308,-0.00412921,0.,-0.00599909,-0.00099
 306,0.,0.00025012,-0.15989919,0.,-0.17902528,0.16403845,0.,0.17058410,
 -0.28571461,0.,-0.04519148,-0.00954993,0.,0.00012191,-0.11493207,0.,-0
 .02457763,0.00592341,0.,-0.02388329,0.72438910,0.,-0.07479309,0.,0.,0.
 00259005,0.,0.,-0.06661029,0.,0.,-0.00220070,0.,0.,0.14193532,-0.05265
 109,0.,-0.12670132,0.00367757,0.,0.00108515,-0.04343146,0.,-0.45161182
 ,0.00136903,0.,0.00223673,-0.15921947,0.,0.89117328,-0.01950594,0.,0.0
 2309643,0.00086823,0.,0.00003101,0.01000452,0.,-0.00609077,-0.00022953
 ,0.,0.00069194,-0.21086059,0.,0.15712360,0.22626456,0.,-0.00539473,0.,
 0.,0.00229485,0.,0.,-0.00114192,0.,0.,-0.00225729,0.,0.,-0.03167186,0.
 ,0.,0.02540470,-0.00815090,0.,0.01383797,0.00136524,0.,0.00018664,0.02
 230579,0.,-0.00805299,-0.00049014,0.,-0.00025504,0.16088278,0.,-0.2360
 3354,-0.17087833,0.,0.23556666,-0.00823417,0.,0.00328694,-0.00062574,0
 .,-0.00057143,0.00087139,0.,-0.00358472,-0.00040985,0.,0.00039822,0.00
 094349,0.,0.00285643,-0.00037446,0.,-0.00018595,0.39638215,0.,-0.00493
 407,0.,0.,-0.00134325,0.,0.,0.00319609,0.,0.,0.00193425,0.,0.,0.008089
 23,0.,0.,0.00106125,0.,0.,0.02435328,0.03233339,0.,0.00148645,0.000503
 61,0.,0.00032279,-0.00107834,0.,-0.00630446,-0.00113086,0.,0.00107270,
 0.00325346,0.,-0.00489050,0.00152980,0.,0.00072321,-0.04117982,0.,0.06
 870253,-0.19444372,0.,0.14228504,0.02015827,0.,0.01430467,-0.09756322,
 0.,0.00464711,-0.00357012,0.,0.00437248,-0.09038839,0.,0.01684313,-0.0
 0703131,0.,-0.00370547,-0.37511041,0.,0.03833930,0.98495619,0.,-0.0844
 3657,0.,0.,-0.00983554,0.,0.,0.01664412,0.,0.,0.00308662,0.,0.,0.01092
 455,0.,0.,0.00552701,0.,0.,-0.03071801,0.,0.,0.15297633,0.16124930,0.,
 -0.40015263,-0.01845006,0.,-0.01141244,-0.04832131,0.,-0.01722852,0.00
 492112,0.,-0.00520665,0.08746420,0.,0.00512578,-0.00241609,0.,0.000128
 62,0.03414910,0.,-0.06960068,-0.09559003,0.,0.74305355,-0.00565189,0.,
 -0.02844763,-0.10644954,0.,0.09762020,-0.31246762,0.,0.07412212,-0.018
 46230,0.,0.01939545,-0.01979627,0.,0.07346319,0.00085709,0.,-0.0011418
 0,-0.01345492,0.,-0.03256877,-0.23702039,0.,-0.12298314,0.71247576,0.,
 0.02467523,0.,0.,-0.00320375,0.,0.,-0.05232005,0.,0.,-0.00522363,0.,0.
 ,0.01174027,0.,0.,0.00617648,0.,0.,-0.00163864,0.,0.,-0.06416218,0.,0.
 ,0.08395619,0.04515574,0.,-0.11597897,0.09748020,0.,-0.47481086,0.0759
 9739,0.,-0.15139468,-0.02054636,0.,0.01634021,0.00112765,0.,-0.0803693
 4,-0.00308296,0.,-0.00610157,0.00482799,0.,0.00849088,-0.12147592,0.,-
 0.24472082,-0.07948403,0.,1.04856276\\0.00001864,0.,0.00001691,-0.0000
 1023,0.,0.00002673,0.00019269,0.,0.00014217,0.00005196,0.,0.00002175,-
 0.00008807,0.,-0.00012642,0.00005237,0.,-0.00000440,-0.00008028,0.,-0.
 00002082,-0.00009764,0.,0.00006581,-0.00003943,0.,-0.00012173\\\@

 ERWIN WITH HIS PSI CAN DO
 CALCULATIONS QUITE A FEW.
 BUT ONE THING HAS NOT BEEN SEEN
 JUST WHAT DOES PSI REALLY MEAN.
 -- WALTER HUCKEL, TRANS. BY FELIX BLOCH
 Job cpu time:  0 days 10 hours  3 minutes 33.1 seconds.
 File lengths (MBytes):  RWF=  404 Int=    0 D2E=    0 Chk=    6 Scr=    1
 Normal termination of Gaussian 98.
