 Gaussian 98, Revision A.4,
 Gaussian 98:  x86-Linux-G98RevA.4 11-Sep-1998

 -----------------------
 #B3PW91/6-31G* OPT FREQ
 -----------------------

 --------------------------------
 1H imidazole C3H4N2 casno=288324
 --------------------------------
 Symbolic Z-matrix:
 Charge =  0 Multiplicity = 1

 SCF Done:  E(RB+HF-PW91) =  -226.128896827     A.U. after   14 cycles
 SCF Done:  E(RB+HF-PW91) =  -226.130666888     A.U. after   12 cycles
 SCF Done:  E(RB+HF-PW91) =  -226.130698740     A.U. after    9 cycles
 SCF Done:  E(RB+HF-PW91) =  -226.130703515     A.U. after    9 cycles
 Optimization completed.
    -- Stationary point found.
 Normal termination of Gaussian 98.

 ---------------------------------------------------
 #N Geom=AllCheck Guess=TCheck RB3PW91/6-31G(d) Freq
 ---------------------------------------------------

 1H imidazole C3H4N2 casno=288324
 --------------------------------
 Redundant internal coordinates taken from checkpointfile:
 /wrk/rdj3/Gau-8813.chk
 Charge =  0 Multiplicity = 1

                         Standard orientation:
 ---------------------------------------------------------------------
 Center     Atomic     Atomic              Coordinates (Angstroms)
 Number     Number      Type              X           Y           Z
 ---------------------------------------------------------------------
    1          7             0       -0.740743   -0.985788    0.000000
    2          1             0       -0.009535    2.111648    0.000000
    3          6             0        1.117477    0.301112    0.000000
    4          1             0        2.117470    0.708627    0.000000
    5          6             0        0.632984   -0.981635    0.000000
    6          1             0        1.196405   -1.905380    0.000000
    7          1             0       -2.099867    0.662082    0.000000
    8          6             0       -1.087006    0.280970    0.000000
    9          7             0        0.000000    1.102979    0.000000
 ---------------------------------------------------------------------

 SCF Done:  E(RB+HF-PW91) =  -226.130703515     A.U. after    1 cycles

  The electronic state is 1-A'.
 Alpha  occ. eigenvalues --  -14.38515 -14.29894 -10.22292 -10.20063 -10.18089
 Alpha  occ. eigenvalues --   -1.01828  -0.87207  -0.74373  -0.61815  -0.59001
 Alpha  occ. eigenvalues --   -0.56265  -0.43949  -0.43683  -0.43075  -0.40348
 Alpha  occ. eigenvalues --   -0.28144  -0.26514  -0.22862
 Alpha virt. eigenvalues --    0.03200   0.07390   0.08129   0.14064   0.15823
 Alpha virt. eigenvalues --    0.17851   0.22409   0.24245   0.31209   0.35369
 Alpha virt. eigenvalues --    0.46047   0.52260   0.54776   0.56698   0.59445

  Exact polarizability:  47.370  -1.304  45.720   0.010  -0.008  17.626
 Approx polarizability:  74.525   1.605  77.422   0.000   0.000  25.956

                     1                      2                      3
                    A"                     A"                     A"
 Frequencies --   522.6859               648.1451               685.8850
 Red. masses --     1.5710                 2.3779                 2.9048
 Frc consts  --     0.2529                 0.5885                 0.8051
 IR Inten    --   102.0061                15.5239                 2.7552
 Raman Activ --     0.0000                 0.0000                 0.0000

                     4                      5                      6
                    A"                     A"                     A"
 Frequencies --   720.7691               802.3245               859.7642
 Red. masses --     1.2186                 1.3406                 1.3105
 Frc consts  --     0.3730                 0.5084                 0.5708
 IR Inten    --    26.6855                34.5994                 6.0371
 Raman Activ --     0.0000                 0.0000                 0.0000

                     7                      8                      9
                    A'                     A'                     A'
 Frequencies --   902.9742               943.8937              1089.6765
 Red. masses --     5.3963                 4.6383                 1.5207
 Frc consts  --     2.5924                 2.4347                 1.0639
 IR Inten    --     8.1202                 1.8841                30.3674
 Raman Activ --     0.0000                 0.0000                 0.0000

                    10                     11                     12
                    A'                     A'                     A'
 Frequencies --  1115.3435              1163.3710              1190.8375
 Red. masses --     1.4636                 1.3451                 6.4986
 Frc consts  --     1.0727                 1.0726                 5.4297
 IR Inten    --    24.8121                 2.4389                 4.2966
 Raman Activ --     0.0000                 0.0000                 0.0000

                    13                     14                     15
                    A'                     A'                     A'
 Frequencies --  1292.4397              1396.6393              1466.3588
 Red. masses --     1.3605                 3.5314                 3.2432
 Frc consts  --     1.3389                 4.0585                 4.1087
 IR Inten    --     0.6383                 8.7612                14.2571
 Raman Activ --     0.0000                 0.0000                 0.0000

                    16                     17                     18
                    A'                     A'                     A'
 Frequencies --  1530.6259              1583.1888              3273.8445
 Red. masses --     3.4257                 3.3889                 1.0922
 Frc consts  --     4.7286                 5.0047                 6.8973
 IR Inten    --    18.4985                13.8005                 7.9046
 Raman Activ --     0.0000                 0.0000                 0.0000

                    19                     20                     21
                    A'                     A'                     A'
 Frequencies --  3279.4546              3307.2141              3676.0256
 Red. masses --     1.0967                 1.1038                 1.0815
 Frc consts  --     6.9495                 7.1132                 8.6102
 IR Inten    --     2.1270                 2.3110                50.5241
 Raman Activ --     0.0000                 0.0000                 0.0000

 - Thermochemistry -
 -------------------
 Temperature   298.150 Kelvin.  Pressure   1.00000 Atm.
 Atom  1 has atomic number  7 and mass  14.00307

 Molecular mass:    68.03745 amu.
 Principal axes and moments of inertia in atomic units:
                           1         2         3
     EIGENVALUES --   184.14743 192.05253 376.19995
           X            0.46241   0.88667   0.00000
           Y            0.88667  -0.46241   0.00000
           Z            0.00000   0.00000   1.00000
 THIS MOLECULE IS AN ASYMMETRIC TOP.
 ROTATIONAL SYMMETRY NUMBER  1.
 ROTATIONAL TEMPERATURES (KELVIN)      0.47035     0.45099     0.23023
 ROTATIONAL CONSTANTS (GHZ)            9.80052     9.39712     4.79729
 Zero-point vibrational energy     188121.5 (Joules/Mol)
                                   44.96213 (Kcal/Mol)
 WARNING-- EXPLICIT CONSIDERATION OF   1 DEGREES OF FREEDOM AS
           VIBRATIONS MAY CAUSE SIGNIFICANT ERROR
 VIBRATIONAL TEMPERATURES:    752.02   932.53   986.83  1037.02  1154.36
          (KELVIN)           1237.00  1299.17  1358.04  1567.79  1604.72
                             1673.82  1713.34  1859.52  2009.44  2109.75
                             2202.22  2277.84  4710.30  4718.38  4758.32
                             5288.95

 Zero-point correction=                           0.071652 (Hartree/Particle)
 Thermal correction to Energy=                    0.075409
 Thermal correction to Enthalpy=                  0.076353
 Thermal correction to Gibbs Free Energy=         0.045387
 Sum of electronic and zero-point Energies=           -226.059052
 Sum of electronic and thermal Energies=              -226.055295
 Sum of electronic and thermal Enthalpies=            -226.054350
 Sum of electronic and thermal Free Energies=         -226.085316

                     E (Thermal)             CV                S
                      KCAL/MOL        CAL/MOL-KELVIN    CAL/MOL-KELVIN
 TOTAL                   47.320             13.346             65.173
 ELECTRONIC               0.000              0.000              0.000
 TRANSLATIONAL            0.889              2.981             38.570
 ROTATIONAL               0.889              2.981             24.102
 VIBRATIONAL             45.542              7.384              2.501
 VIBRATION  1             0.878              1.200              0.604
                       Q            LOG10(Q)             LN(Q)
 TOTAL BOT       0.132869D-20        -20.876577        -48.070095
 TOTAL V=0       0.120420D+13         12.080698         27.816836
 VIB (BOT)       0.145878D-32        -32.836011        -75.607710
 VIB (BOT)  1    0.308057D+00         -0.511369         -1.177471
 VIB (V=0)       0.132210D+01          0.121264          0.279221
 VIB (V=0)  1    0.108728D+01          0.036342          0.083680
 ELECTRONIC      0.100000D+01          0.000000          0.000000
 TRANSLATIONAL   0.220588D+08          7.343582         16.909224
 ROTATIONAL      0.412906D+05          4.615852         10.628391
 ***** Axes restored to original set *****
 -------------------------------------------------------------------
 Center     Atomic                   Forces (Hartrees/Bohr)
 Number     Number              X              Y              Z
 -------------------------------------------------------------------
    1          7           0.000084962    0.000000000   -0.000113706
    2          1           0.000008335    0.000000000    0.000022547
    3          6          -0.000254672    0.000000000   -0.000148490
    4          1          -0.000085058    0.000000000   -0.000034745
    5          6           0.000158911    0.000000000    0.000166959
    6          1          -0.000081304    0.000000000   -0.000005167
    7          1           0.000121183    0.000000000    0.000053597
    8          6          -0.000113425    0.000000000   -0.000038670
    9          7           0.000161069    0.000000000    0.000097674
 -------------------------------------------------------------------
 Cartesian Forces:  Max     0.000254672 RMS     0.000094915

 GradGradGradGradGradGradGradGradGradGradGradGradGradGradGradGradGradGrad
 Berny optimization.
 Internal  Forces:  Max     0.000181610 RMS     0.000062938
 Search for a local minimum.
 Step number   1 out of a maximum of  48
 All quantities printed in internal units (Hartrees-Bohrs-Radians)
 Second derivative matrix not updated -- analytic derivatives used.
     Eigenvalues ---    0.00518   0.01063   0.01967   0.02732   0.05958
     Eigenvalues ---    0.06195   0.09903   0.10547   0.11136   0.11935
     Eigenvalues ---    0.23321   0.24821   0.35794   0.37706   0.38034
     Eigenvalues ---    0.38373   0.41924   0.45895   0.48098   0.48779
     Eigenvalues ---    0.592091000.000001000.000001000.000001000.00000
     Eigenvalues --- 1000.000001000.000001000.000001000.000001000.00000
     Eigenvalues --- 1000.000001000.000001000.000001000.000001000.00000
     Eigenvalues --- 1000.000001000.000001000.00000
 Angle between quadratic step and forces=  32.83 degrees.
 Linear search not attempted -- first point.
 Iteration  1 RMS(Cart)=  0.00025488 RMS(Int)=  0.00000005
 Iteration  2 RMS(Cart)=  0.00000007 RMS(Int)=  0.00000001
 Variable       Old X    -DE/DX   Delta X   Delta X   Delta X     New X
                                 (Linear)    (Quad)   (Total)
    R1        2.59598   0.00004   0.00000  -0.00009  -0.00009   2.59589
    R2        2.48165  -0.00009   0.00000  -0.00012  -0.00012   2.48153
    R3        1.90619  -0.00002   0.00000  -0.00003  -0.00003   1.90617
    R4        2.04060   0.00009   0.00000   0.00020   0.00020   2.04080
    R5        2.59118   0.00015   0.00000   0.00039   0.00039   2.59157
    R6        2.59914   0.00018   0.00000   0.00046   0.00046   2.59960
    R7        2.04470   0.00005   0.00000   0.00016   0.00016   2.04486
    R8        2.04504   0.00011   0.00000   0.00030   0.00030   2.04534
    R9        2.57536  -0.00002   0.00000  -0.00020  -0.00020   2.57515
    A1        1.83460   0.00006   0.00000   0.00008   0.00008   1.83468
    A2        2.31890   0.00005   0.00000   0.00014   0.00014   2.31904
    A3        2.13220   0.00009   0.00000   0.00032   0.00032   2.13253
    A4        1.83208  -0.00014   0.00000  -0.00046  -0.00046   1.83162
    A5        1.93495   0.00001   0.00000   0.00015   0.00015   1.93511
    A6        2.11546   0.00006   0.00000   0.00051   0.00051   2.11598
    A7        2.23277  -0.00007   0.00000  -0.00066  -0.00066   2.23210
    A8        2.19751  -0.00006   0.00000  -0.00056  -0.00056   2.19695
    A9        1.95144  -0.00001   0.00000  -0.00002  -0.00002   1.95141
   A10        2.13424   0.00007   0.00000   0.00058   0.00058   2.13482
   A11        2.20267  -0.00003   0.00000  -0.00002  -0.00002   2.20265
   A12        2.20881  -0.00005   0.00000  -0.00023  -0.00023   2.20858
   A13        1.87171   0.00008   0.00000   0.00025   0.00025   1.87196
    D1        0.00000   0.00000   0.00000   0.00000   0.00000   0.00000
    D2        3.14159   0.00000   0.00000   0.00000   0.00000   3.14159
    D3        3.14159   0.00000   0.00000   0.00000   0.00000   3.14159
    D4        0.00000   0.00000   0.00000   0.00000   0.00000   0.00000
    D5        3.14159   0.00000   0.00000   0.00000   0.00000   3.14159
    D6        0.00000   0.00000   0.00000   0.00000   0.00000   0.00000
    D7        0.00000   0.00000   0.00000   0.00000   0.00000   0.00000
    D8        3.14159   0.00000   0.00000   0.00000   0.00000   3.14159
    D9        0.00000   0.00000   0.00000   0.00000   0.00000   0.00000
   D10        3.14159   0.00000   0.00000   0.00000   0.00000   3.14159
   D11        3.14159   0.00000   0.00000   0.00000   0.00000   3.14159
   D12        0.00000   0.00000   0.00000   0.00000   0.00000   0.00000
   D13        3.14159   0.00000   0.00000   0.00000   0.00000   3.14159
   D14        0.00000   0.00000   0.00000   0.00000   0.00000   0.00000
   D15        0.00000   0.00000   0.00000   0.00000   0.00000   0.00000
   D16        3.14159   0.00000   0.00000   0.00000   0.00000   3.14159
         Item               Value     Threshold  Converged?
 Maximum Force            0.000182     0.000450     YES
 RMS     Force            0.000063     0.000300     YES
 Maximum Displacement     0.000913     0.001800     YES
 RMS     Displacement     0.000255     0.001200     YES
 Predicted change in Energy=-2.536766D-07
 Optimization completed.
    -- Stationary point found.
                         ----------------------------
                         !   Optimized Parameters   !
                         ! (Angstroms and Degrees)  !
 ------------------------                            -------------------------
 ! Name  Definition              Value          Derivative Info.             !
 -----------------------------------------------------------------------------
 ! R1    R(1,5)                  1.3737         -DE/DX =    0.               !
 ! R2    R(1,8)                  1.3132         -DE/DX =   -0.0001           !
 ! R3    R(2,9)                  1.0087         -DE/DX =    0.               !
 ! R4    R(3,4)                  1.0798         -DE/DX =    0.0001           !
 ! R5    R(3,5)                  1.3712         -DE/DX =    0.0001           !
 ! R6    R(3,9)                  1.3754         -DE/DX =    0.0002           !
 ! R7    R(5,6)                  1.082          -DE/DX =    0.0001           !
 ! R8    R(7,8)                  1.0822         -DE/DX =    0.0001           !
 ! R9    R(8,9)                  1.3628         -DE/DX =    0.               !
 ! A1    A(5,1,8)              105.1149         -DE/DX =    0.0001           !
 ! A2    A(4,3,5)              132.8633         -DE/DX =    0.               !
 ! A3    A(4,3,9)              122.1662         -DE/DX =    0.0001           !
 ! A4    A(5,3,9)              104.9705         -DE/DX =   -0.0001           !
 ! A5    A(1,5,3)              110.8647         -DE/DX =    0.               !
 ! A6    A(1,5,6)              121.2071         -DE/DX =    0.0001           !
 ! A7    A(3,5,6)              127.9281         -DE/DX =   -0.0001           !
 ! A8    A(1,8,7)              125.908          -DE/DX =   -0.0001           !
 ! A9    A(1,8,9)              111.809          -DE/DX =    0.               !
 ! A10   A(7,8,9)              122.283          -DE/DX =    0.0001           !
 ! A11   A(2,9,3)              126.2036         -DE/DX =    0.               !
 ! A12   A(2,9,8)              126.5555         -DE/DX =   -0.0001           !
 ! A13   A(3,9,8)              107.2409         -DE/DX =    0.0001           !
 ! D1    D(8,1,5,3)              0.             -DE/DX =    0.               !
 ! D2    D(8,1,5,6)            180.             -DE/DX =    0.               !
 ! D3    D(5,1,8,7)            180.             -DE/DX =    0.               !
 ! D4    D(5,1,8,9)              0.             -DE/DX =    0.               !
 ! D5    D(4,3,5,1)            180.             -DE/DX =    0.               !
 ! D6    D(4,3,5,6)              0.             -DE/DX =    0.               !
 ! D7    D(9,3,5,1)              0.             -DE/DX =    0.               !
 ! D8    D(9,3,5,6)            180.             -DE/DX =    0.               !
 ! D9    D(4,3,9,2)              0.             -DE/DX =    0.               !
 ! D10   D(4,3,9,8)            180.             -DE/DX =    0.               !
 ! D11   D(5,3,9,2)            180.             -DE/DX =    0.               !
 ! D12   D(5,3,9,8)              0.             -DE/DX =    0.               !
 ! D13   D(1,8,9,2)            180.             -DE/DX =    0.               !
 ! D14   D(1,8,9,3)              0.             -DE/DX =    0.               !
 ! D15   D(7,8,9,2)              0.             -DE/DX =    0.               !
 ! D16   D(7,8,9,3)            180.             -DE/DX =    0.               !
 -----------------------------------------------------------------------------
 GradGradGradGradGradGradGradGradGradGradGradGradGradGradGradGradGradGrad

 1\1\GINC-QCHEM5\Freq\RB3PW91\6-31G(d)\C3H4N2\RDJ3\22-Feb-1999\0\\#N GE
 OM=ALLCHECK GUESS=TCHECK RB3PW91/6-31G(D) FREQ\\1H imidazole C3H4N2 ca
 sno=288324\\0,1\N,0.49693229,0.,1.1285107831\H,0.4899044622,0.,-2.0540
 547841\C,-1.019613333,0.,-0.5475518358\H,-1.9006075045,0.,-1.171972930
 2\C,-0.8397943572,0.,0.8118012462\H,-1.5986758377,0.,1.5830639116\H,2.
 1954464963,0.,-0.1667664978\C,1.1224257031,0.,-0.0261889079\N,0.251042
 611,0.,-1.0740297424\\Version=x86-Linux-G98RevA.4\State=1-A'\HF=-226.1
 307035\RMSD=8.681e-10\RMSF=9.492e-05\Dipole=-0.1110783,0.,-1.4772367\D
 ipoleDeriv=-0.3920191,-0.0006083,-0.0164716,-0.0009228,-0.3037431,0.00
 0688,-0.0099203,0.0002392,-0.5818706,0.1893003,0.0000145,-0.0035602,-0
 .0000063,0.3446968,0.000054,0.0006236,0.0001843,0.1909097,0.0031597,0.
 0004556,-0.2210326,0.000237,-0.1225669,-0.0000424,-0.0241873,0.0012305
 ,0.1813308,0.0165655,-0.0007028,-0.0520701,-0.0001729,0.1762545,0.0000
 485,-0.0726947,-0.0004934,0.0292961,0.1922892,-0.0005946,-0.0499234,0.
 0004687,-0.1095478,-0.000318,-0.0792777,0.000309,0.1387644,-0.0101444,
 0.0008312,0.0691804,-0.0000852,0.1390474,0.0000786,0.0829564,-0.000780
 6,0.0227092,-0.0361701,-0.0003898,0.0330157,-0.0001395,0.1470772,-0.00
 00019,0.0366381,0.0000188,0.0646432,0.1436779,0.0003791,0.0865549,0.00
 07994,0.0102893,-0.0002574,-0.0006512,-0.0005344,0.5356277,-0.1066587,
 0.0006152,0.1543066,-0.0001784,-0.2815075,-0.0002493,0.0665132,-0.0001
 732,-0.5814099\Polar=47.8623526,0.0118872,17.6264728,-0.8034334,-0.005
 5018,45.2278412\PG=CS [SG(C3H4N2)]\NImag=0\\0.51191449,-0.00003083,0.1
 0455099,-0.06366461,0.00000899,0.58496553,-0.00310760,0.00000336,-0.00
 826776,0.08277277,-0.00000449,0.00715166,0.00000628,-0.00000022,0.0114
 5099,-0.00298269,-0.00000376,-0.00383621,-0.09760786,0.00000279,0.4564
 3870,-0.03305742,0.00000431,-0.01226332,0.00702139,0.00000281,-0.00304
 156,0.75967710,-0.00000193,0.01651347,-0.00000885,-0.00000007,-0.00783
 564,0.00000222,0.00000502,0.10599144,-0.08740570,0.00005581,-0.0198285
 4,0.02853381,0.00000822,-0.00106077,0.15681773,-0.00000195,0.75463276,
 0.00142955,-0.00002475,0.00101951,0.00006822,-0.00000393,0.00019052,-0
 .25854432,-0.00000310,-0.14178369,0.27333049,-0.00000181,0.00725084,0.
 00000920,-0.00000016,-0.00112028,0.00000100,-0.00000049,-0.01956940,0.
 00000772,-0.00000157,0.01799203,-0.00418002,-0.00001580,-0.00566706,-0
 .00090883,-0.00000321,0.00023740,-0.15227563,-0.00000183,-0.16702281,0
 .15617941,-0.00000159,0.16024808,-0.27220836,-0.00002588,-0.04039789,-
 0.00872393,-0.00000728,-0.00125136,-0.10048283,0.00000471,-0.02049408,
 0.00506726,-0.00000763,-0.02194040,0.67586983,0.00001653,-0.06992344,-
 0.00000431,-0.00000142,0.00241005,-0.00000044,-0.00000393,-0.06336001,
 -0.00003056,0.00001346,-0.00221589,0.00000861,0.00001415,0.13127217,-0
 .05221252,0.00001153,-0.11166636,0.00361594,0.00000222,0.00013115,-0.0
 3703891,0.00000926,-0.40077669,0.00107119,-0.00000464,0.00242067,-0.15
 080316,-0.00000564,0.80978547,-0.02026420,0.00004545,0.02066969,0.0008
 7472,0.00000544,-0.00000625,0.00883288,-0.00000062,-0.00538554,-0.0002
 1344,0.00000446,0.00064390,-0.19502932,-0.00002490,0.14858123,0.211926
 37,-0.00000504,-0.00553651,0.00000094,0.00000004,0.00207658,0.00000337
 ,0.00000284,-0.00084089,0.00001002,-0.00000535,-0.00204942,-0.00000361
 ,-0.00000434,-0.02821514,0.00000209,0.00000807,0.02292033,-0.00646233,
 -0.00004130,0.01257885,0.00127092,-0.00000523,0.00024360,0.02052626,0.
 00000002,-0.00807233,-0.00042732,-0.00000391,-0.00018720,0.15108479,0.
 00002264,-0.22035058,-0.16117787,-0.00000746,0.22029046,-0.00846304,-0
 .00001690,0.00441493,-0.00058396,-0.00000191,-0.00048214,0.00080910,0.
 00000024,-0.00311593,-0.00034574,-0.00000218,0.00038008,0.00083051,0.0
 0001019,0.00241892,-0.00031559,-0.00000458,-0.00020778,0.37315764,-0.0
 0000675,-0.00576399,-0.00000083,0.00000032,-0.00123666,0.00000012,0.00
 000615,0.00260802,0.00001243,-0.00000723,0.00196038,-0.00000476,-0.000
 00457,0.00702123,0.00000450,0.00000828,0.00119734,-0.00000778,-0.00000
 328,0.02030521,0.02947067,0.00000096,0.00057804,0.00044839,0.00000013,
 0.00026080,-0.00101984,0.00000059,-0.00580868,-0.00104690,-0.00000036,
 0.00103837,0.00304075,-0.00000044,-0.00447840,0.00140483,-0.00000003,0
 .00069206,-0.03945040,0.00000053,0.06239840,-0.17020662,0.00002323,0.1
 2441103,0.01834836,0.00000315,0.01397583,-0.09153876,-0.00000225,0.005
 68410,-0.00332433,0.00000332,0.00399961,-0.08892319,-0.00001149,0.0143
 9109,-0.00615962,0.00000236,-0.00338113,-0.35191923,0.00000386,0.03682
 606,0.90692726,0.00002358,-0.07595539,-0.00001126,-0.00000169,-0.00914
 046,0.00000267,-0.00000825,0.01690532,-0.00004568,0.00001689,0.0026945
 3,0.00001089,0.00002498,0.01002004,-0.00000383,-0.00003433,0.00543847,
 0.00003104,0.00001202,-0.02343678,-0.00000111,-0.00001844,0.13152424,0
 .15022115,-0.00000740,-0.35150548,-0.01670020,-0.00001056,-0.01087493,
 -0.04701470,0.00000427,-0.01114399,0.00379536,-0.00000929,-0.00545982,
 0.07468572,0.00000536,-0.00283742,-0.00178186,-0.00000347,0.00032178,0
 .03188775,-0.00000199,-0.06201246,-0.08526802,0.00001355,0.66459720,-0
 .00603680,0.00002201,-0.02592157,-0.09666997,0.00000644,0.09120551,-0.
 29271713,-0.00000201,0.06714931,-0.01746767,0.00000605,0.01810188,-0.0
 1639997,-0.00001259,0.06997622,0.00034821,0.00000600,-0.00122553,-0.01
 316968,0.00000321,-0.02967356,-0.21320387,-0.00001475,-0.10982520,0.65
 531689,0.00001075,0.02171236,-0.00000015,-0.00000016,-0.00375625,-0.00
 000796,-0.00000847,-0.05041229,-0.00001601,0.00001557,-0.00494278,0.00
 001132,0.00000585,0.01299100,-0.00001549,-0.00001185,0.00500924,0.0000
 1198,0.00000639,-0.00265473,-0.00000027,-0.00000375,-0.05804998,0.0000
 0953,-0.00001434,0.08010342,0.03721606,-0.00000901,-0.10561875,0.08961
 560,-0.00000062,-0.44153973,0.07530995,-0.00000373,-0.14091896,-0.0189
 9807,0.00000187,0.01439237,0.00607564,0.00000479,-0.07222785,-0.002948
 14,-0.00000184,-0.00551663,0.00415456,-0.00000223,0.00733188,-0.110638
 56,0.00000373,-0.22108488,-0.07978705,0.00000705,0.96518254\\-0.000084
 96,0.,0.00011371,-0.00000833,0.,-0.00002255,0.00025467,0.,0.00014849,0
 .00008506,0.,0.00003474,-0.00015891,0.,-0.00016696,0.00008130,0.,0.000
 00517,-0.00012118,0.,-0.00005360,0.00011343,0.,0.00003867,-0.00016107,
 0.,-0.00009767\\\@

 MICRO CREDO - NEVER TRUST A COMPUTER BIGGER
               BIGGER THAN YOU CAN LIFT.
 Job cpu time:  0 days  0 hours 34 minutes 11.9 seconds.
 File lengths (MBytes):  RWF=   16 Int=    0 D2E=    0 Chk=    3 Scr=    1
 Normal termination of Gaussian 98.
