 Gaussian 98, Revision A.4,
 Gaussian 98:  IBM-RS6000-G98RevA.4 11-Sep-1998

 ----------------------
 #B3PW91/6-31G opt freq
 ----------------------

 --------------------------------
 1H imidazole C3H4N2 casno=288324
 --------------------------------
 Symbolic Z-matrix:
 Charge =  0 Multiplicity = 1

 SCF Done:  E(RB+HF-PW91) =  -225.985871055     A.U. after   15 cycles
 SCF Done:  E(RB+HF-PW91) =  -226.045939267     A.U. after   13 cycles
 SCF Done:  E(RB+HF-PW91) =  -226.056822944     A.U. after   13 cycles
 SCF Done:  E(RB+HF-PW91) =  -226.057178182     A.U. after   11 cycles
 SCF Done:  E(RB+HF-PW91) =  -226.057298297     A.U. after   10 cycles
 SCF Done:  E(RB+HF-PW91) =  -226.057308376     A.U. after    9 cycles
 Optimization completed.
    -- Stationary point found.
 Normal termination of Gaussian 98.

 ------------------------------------------------
 #N Geom=AllCheck Guess=TCheck RB3PW91/6-31G Freq
 ------------------------------------------------

 1H imidazole C3H4N2 casno=288324
 --------------------------------
 Redundant internal coordinates taken from checkpointfile:
 /wrk/rdj3/Gau-14728.chk
 Charge =  0 Multiplicity = 1

                         Standard orientation:
 ---------------------------------------------------------------------
 Center     Atomic     Atomic              Coordinates (Angstroms)
 Number     Number      Type              X           Y           Z
 ---------------------------------------------------------------------
    1          7             0       -0.745930   -0.990230    0.000000
    2          1             0       -0.003891    2.116849    0.000000
    3          6             0        1.126036    0.299987    0.000000
    4          1             0        2.125397    0.700608    0.000000
    5          6             0        0.646705   -0.989913    0.000000
    6          1             0        1.202877   -1.912050    0.000000
    7          1             0       -2.114862    0.659788    0.000000
    8          6             0       -1.104077    0.288578    0.000000
    9          7             0        0.000000    1.110643    0.000000
 ---------------------------------------------------------------------

 SCF Done:  E(RB+HF-PW91) =  -226.057308376     A.U. after    1 cycles

  The electronic state is 1-A'.
 Alpha  occ. eigenvalues --  -14.38559 -14.30724 -10.22825 -10.20680 -10.18448
 Alpha  occ. eigenvalues --   -1.03026  -0.88304  -0.75500  -0.62521  -0.59777
 Alpha  occ. eigenvalues --   -0.56990  -0.44812  -0.44518  -0.43425  -0.41450
 Alpha  occ. eigenvalues --   -0.28383  -0.25616  -0.23736
 Alpha virt. eigenvalues --    0.02270   0.06653   0.08024   0.13750   0.15451
 Alpha virt. eigenvalues --    0.17609   0.21420   0.23567   0.30808   0.35291
 Alpha virt. eigenvalues --    0.44398   0.54584   0.55038   0.59354   0.60128

  Exact polarizability:  46.943  -1.333  45.268  -0.001  -0.001  16.010
 Approx polarizability:  72.744   1.737  77.084   0.000   0.000  20.254

                     1                      2                      3
                    A"                     A"                     A"
 Frequencies --   643.0667               673.4001               686.6652
 Red. masses --     3.1905                 1.4088                 2.1253
 Frc consts  --     0.7774                 0.3764                 0.5904
 IR Inten    --    19.8848               170.6670                 6.5816
 Raman Activ --     0.0000                 0.0000                 0.0000

                     4                      5                      6
                    A"                     A"                     A"
 Frequencies --   765.9159               827.3407               902.9006
 Red. masses --     1.2480                 1.4089                 1.3702
 Frc consts  --     0.4314                 0.5682                 0.6581
 IR Inten    --    27.2115                28.0196                 5.3698
 Raman Activ --     0.0000                 0.0000                 0.0000

                     7                      8                      9
                    A'                     A'                     A'
 Frequencies --   921.4843               958.8726              1081.4785
 Red. masses --     5.7761                 4.5815                 1.7358
 Frc consts  --     2.8898                 2.4819                 1.1961
 IR Inten    --     8.0318                 3.3996                35.8436
 Raman Activ --     0.0000                 0.0000                 0.0000

                    10                     11                     12
                    A'                     A'                     A'
 Frequencies --  1121.3577              1154.9967              1177.6137
 Red. masses --     1.6119                 6.6621                 1.3742
 Frc consts  --     1.1942                 5.2363                 1.1228
 IR Inten    --    17.9716                 9.7452                 0.4935
 Raman Activ --     0.0000                 0.0000                 0.0000

                    13                     14                     15
                    A'                     A'                     A'
 Frequencies --  1293.7022              1373.4139              1441.4911
 Red. masses --     1.4669                 2.9954                 2.6264
 Frc consts  --     1.4465                 3.3290                 3.2154
 IR Inten    --     0.7636                10.2302                15.4872
 Raman Activ --     0.0000                 0.0000                 0.0000

                    16                     17                     18
                    A'                     A'                     A'
 Frequencies --  1503.4496              1569.2331              3317.4363
 Red. masses --     2.9893                 2.7596                 1.0915
 Frc consts  --     3.9811                 4.0039                 7.0777
 IR Inten    --    12.0864                18.6769                 2.9533
 Raman Activ --     0.0000                 0.0000                 0.0000

                    19                     20                     21
                    A'                     A'                     A'
 Frequencies --  3327.9908              3343.6358              3708.3235
 Red. masses --     1.0974                 1.1091                 1.0820
 Frc consts  --     7.1612                 7.3054                 8.7664
 IR Inten    --     2.0038                 1.7156                49.2515
 Raman Activ --     0.0000                 0.0000                 0.0000

 - Thermochemistry -
 -------------------
 Temperature   298.150 Kelvin.  Pressure   1.00000 Atm.
 Atom  1 has atomic number  7 and mass  14.00307

 Molecular mass:    68.03745 amu.
 Principal axes and moments of inertia in atomic units:
                           1         2         3
     EIGENVALUES --   188.55420 193.87766 382.43186
           X            0.48473   0.87466   0.00000
           Y            0.87466  -0.48473   0.00000
           Z            0.00000   0.00000   1.00000
 THIS MOLECULE IS AN ASYMMETRIC TOP.
 ROTATIONAL SYMMETRY NUMBER  1.
 ROTATIONAL TEMPERATURES (KELVIN)      0.45936     0.44674     0.22648
 ROTATIONAL CONSTANTS (GHZ)            9.57147     9.30866     4.71912
 Zero-point vibrational energy     190169.0 (Joules/Mol)
                                   45.45148 (Kcal/Mol)
 VIBRATIONAL TEMPERATURES:    925.22   968.87   987.95  1101.98  1190.35
          (KELVIN)           1299.07  1325.80  1379.60  1556.00  1613.37
                             1661.77  1694.31  1861.34  1976.02  2073.97
                             2163.12  2257.76  4773.02  4788.21  4810.72
                             5335.42

 Zero-point correction=                           0.072432 (Hartree/Particle)
 Thermal correction to Energy=                    0.076073
 Thermal correction to Enthalpy=                  0.077017
 Thermal correction to Gibbs Free Energy=         0.046196
 Sum of electronic and zero-point Energies=           -225.984877
 Sum of electronic and thermal Energies=              -225.981236
 Sum of electronic and thermal Enthalpies=            -225.980292
 Sum of electronic and thermal Free Energies=         -226.011112

                     E (Thermal)             CV                S
                      KCAL/MOL        CAL/MOL-KELVIN    CAL/MOL-KELVIN
 TOTAL                   47.736             12.853             64.867
 ELECTRONIC               0.000              0.000              0.000
 TRANSLATIONAL            0.889              2.981             38.570
 ROTATIONAL               0.889              2.981             24.151
 VIBRATIONAL             45.959              6.891              2.145
                       Q            LOG10(Q)             LN(Q)
 TOTAL BOT       0.563954D-21        -21.248756        -48.927069
 TOTAL V=0       0.116739D+13         12.067216         27.785791
 VIB (BOT)       0.604022D-33        -33.218947        -76.489452
 VIB (V=0)       0.125033D+01          0.097025          0.223408
 ELECTRONIC      0.100000D+01          0.000000          0.000000
 TRANSLATIONAL   0.220588D+08          7.343582         16.909224
 ROTATIONAL      0.423261D+05          4.626608         10.653160
 ***** Axes restored to original set *****
 -------------------------------------------------------------------
 Center     Atomic                   Forces (Hartrees/Bohr)
 Number     Number              X              Y              Z
 -------------------------------------------------------------------
    1          7           0.000360515    0.000000000    0.000051077
    2          1          -0.000014037    0.000000000   -0.000014907
    3          6           0.000282495    0.000000000   -0.000242646
    4          1          -0.000042940    0.000000000   -0.000005370
    5          6          -0.000344501    0.000000000   -0.000036583
    6          1           0.000022143    0.000000000    0.000060603
    7          1           0.000072142    0.000000000   -0.000000932
    8          6          -0.000371857    0.000000000   -0.000250034
    9          7           0.000036041    0.000000000    0.000438792
 -------------------------------------------------------------------
 Cartesian Forces:  Max     0.000438792 RMS     0.000171871

 GradGradGradGradGradGradGradGradGradGradGradGradGradGradGradGradGradGrad
 Berny optimization.
 Internal  Forces:  Max     0.000317032 RMS     0.000088689
 Search for a local minimum.
 Step number   1 out of a maximum of  48
 All quantities printed in internal units (Hartrees-Bohrs-Radians)
 Second derivative matrix not updated -- analytic derivatives used.
     Eigenvalues ---    0.00810   0.01232   0.02089   0.02824   0.06272
     Eigenvalues ---    0.06439   0.10152   0.10918   0.11355   0.11879
     Eigenvalues ---    0.23641   0.24859   0.33719   0.38506   0.38908
     Eigenvalues ---    0.38939   0.40586   0.44920   0.48692   0.49488
     Eigenvalues ---    0.570661000.000001000.000001000.000001000.00000
     Eigenvalues --- 1000.000001000.000001000.000001000.000001000.00000
     Eigenvalues --- 1000.000001000.000001000.000001000.000001000.00000
     Eigenvalues --- 1000.000001000.000001000.00000
 Angle between quadratic step and forces=  24.28 degrees.
 Linear search not attempted -- first point.
 Iteration  1 RMS(Cart)=  0.00025000 RMS(Int)=  0.00000006
 Iteration  2 RMS(Cart)=  0.00000006 RMS(Int)=  0.00000001
 Variable       Old X    -DE/DX   Delta X   Delta X   Delta X     New X
                                 (Linear)    (Quad)   (Total)
    R1        2.63170   0.00025   0.00000   0.00095   0.00095   2.63265
    R2        2.50958  -0.00006   0.00000  -0.00005  -0.00005   2.50953
    R3        1.90147   0.00001   0.00000   0.00003   0.00003   1.90150
    R4        2.03461   0.00004   0.00000   0.00010   0.00010   2.03471
    R5        2.60042   0.00007   0.00000   0.00017   0.00017   2.60059
    R6        2.62197  -0.00022   0.00000  -0.00056  -0.00056   2.62142
    R7        2.03500   0.00003   0.00000   0.00004   0.00004   2.03504
    R8        2.03484   0.00007   0.00000   0.00020   0.00020   2.03505
    R9        2.60123  -0.00032   0.00000  -0.00091  -0.00091   2.60031
    A1        1.84364  -0.00010   0.00000  -0.00035  -0.00035   1.84329
    A2        2.30785  -0.00002   0.00000  -0.00027  -0.00027   2.30758
    A3        2.13636   0.00002   0.00000   0.00023   0.00023   2.13659
    A4        1.83898  -0.00001   0.00000   0.00003   0.00003   1.83901
    A5        1.92681  -0.00011   0.00000  -0.00032  -0.00032   1.92649
    A6        2.11329  -0.00001   0.00000  -0.00049  -0.00049   2.11280
    A7        2.24308   0.00011   0.00000   0.00081   0.00081   2.24389
    A8        2.19582  -0.00005   0.00000  -0.00031  -0.00031   2.19551
    A9        1.93775   0.00009   0.00000   0.00028   0.00028   1.93803
   A10        2.14962  -0.00003   0.00000   0.00003   0.00003   2.14965
   A11        2.19863  -0.00008   0.00000  -0.00032  -0.00032   2.19831
   A12        2.20695  -0.00005   0.00000  -0.00003  -0.00003   2.20692
   A13        1.87760   0.00013   0.00000   0.00036   0.00036   1.87796
    D1        0.00000   0.00000   0.00000   0.00000   0.00000   0.00000
    D2        3.14159   0.00000   0.00000   0.00000   0.00000   3.14159
    D3        3.14159   0.00000   0.00000   0.00000   0.00000   3.14159
    D4        0.00000   0.00000   0.00000   0.00000   0.00000   0.00000
    D5        3.14159   0.00000   0.00000   0.00000   0.00000   3.14159
    D6        0.00000   0.00000   0.00000   0.00000   0.00000   0.00000
    D7        0.00000   0.00000   0.00000   0.00000   0.00000   0.00000
    D8        3.14159   0.00000   0.00000   0.00000   0.00000   3.14159
    D9        0.00000   0.00000   0.00000   0.00000   0.00000   0.00000
   D10        3.14159   0.00000   0.00000   0.00000   0.00000   3.14159
   D11        3.14159   0.00000   0.00000   0.00000   0.00000   3.14159
   D12        0.00000   0.00000   0.00000   0.00000   0.00000   0.00000
   D13        3.14159   0.00000   0.00000   0.00000   0.00000   3.14159
   D14        0.00000   0.00000   0.00000   0.00000   0.00000   0.00000
   D15        0.00000   0.00000   0.00000   0.00000   0.00000   0.00000
   D16        3.14159   0.00000   0.00000   0.00000   0.00000   3.14159
         Item               Value     Threshold  Converged?
 Maximum Force            0.000317     0.000450     YES
 RMS     Force            0.000089     0.000300     YES
 Maximum Displacement     0.000609     0.001800     YES
 RMS     Displacement     0.000250     0.001200     YES
 Predicted change in Energy=-4.843900D-07
 Optimization completed.
    -- Stationary point found.
                         ----------------------------
                         !   Optimized Parameters   !
                         ! (Angstroms and Degrees)  !
 ------------------------                            -------------------------
 ! Name  Definition              Value          Derivative Info.             !
 -----------------------------------------------------------------------------
 ! R1    R(1,5)                  1.3926         -DE/DX =    0.0003           !
 ! R2    R(1,8)                  1.328          -DE/DX =   -0.0001           !
 ! R3    R(2,9)                  1.0062         -DE/DX =    0.               !
 ! R4    R(3,4)                  1.0767         -DE/DX =    0.               !
 ! R5    R(3,5)                  1.3761         -DE/DX =    0.0001           !
 ! R6    R(3,9)                  1.3875         -DE/DX =   -0.0002           !
 ! R7    R(5,6)                  1.0769         -DE/DX =    0.               !
 ! R8    R(7,8)                  1.0768         -DE/DX =    0.0001           !
 ! R9    R(8,9)                  1.3765         -DE/DX =   -0.0003           !
 ! A1    A(5,1,8)              105.6325         -DE/DX =   -0.0001           !
 ! A2    A(4,3,5)              132.23           -DE/DX =    0.               !
 ! A3    A(4,3,9)              122.4044         -DE/DX =    0.               !
 ! A4    A(5,3,9)              105.3656         -DE/DX =    0.               !
 ! A5    A(1,5,3)              110.3983         -DE/DX =   -0.0001           !
 ! A6    A(1,5,6)              121.0825         -DE/DX =    0.               !
 ! A7    A(3,5,6)              128.5192         -DE/DX =    0.0001           !
 ! A8    A(1,8,7)              125.8113         -DE/DX =   -0.0001           !
 ! A9    A(1,8,9)              111.0247         -DE/DX =    0.0001           !
 ! A10   A(7,8,9)              123.1639         -DE/DX =    0.               !
 ! A11   A(2,9,3)              125.9725         -DE/DX =   -0.0001           !
 ! A12   A(2,9,8)              126.4488         -DE/DX =    0.               !
 ! A13   A(3,9,8)              107.5788         -DE/DX =    0.0001           !
 ! D1    D(8,1,5,3)              0.             -DE/DX =    0.               !
 ! D2    D(8,1,5,6)            180.             -DE/DX =    0.               !
 ! D3    D(5,1,8,7)            180.             -DE/DX =    0.               !
 ! D4    D(5,1,8,9)              0.             -DE/DX =    0.               !
 ! D5    D(4,3,5,1)            180.             -DE/DX =    0.               !
 ! D6    D(4,3,5,6)              0.             -DE/DX =    0.               !
 ! D7    D(9,3,5,1)              0.             -DE/DX =    0.               !
 ! D8    D(9,3,5,6)            180.             -DE/DX =    0.               !
 ! D9    D(4,3,9,2)              0.             -DE/DX =    0.               !
 ! D10   D(4,3,9,8)            180.             -DE/DX =    0.               !
 ! D11   D(5,3,9,2)            180.             -DE/DX =    0.               !
 ! D12   D(5,3,9,8)              0.             -DE/DX =    0.               !
 ! D13   D(1,8,9,2)            180.             -DE/DX =    0.               !
 ! D14   D(1,8,9,3)              0.             -DE/DX =    0.               !
 ! D15   D(7,8,9,2)              0.             -DE/DX =    0.               !
 ! D16   D(7,8,9,3)            180.             -DE/DX =    0.               !
 -----------------------------------------------------------------------------
 GradGradGradGradGradGradGradGradGradGradGradGradGradGradGradGradGradGrad

 1\1\GINC-INDIUM\Freq\RB3PW91\6-31G\C3H4N2\RDJ3\22-Jun-2000\0\\#N GEOM=
 ALLCHECK GUESS=TCHECK RB3PW91/6-31G FREQ\\1H imidazole C3H4N2 casno=28
 8324\\0,1\N,0.5003518416,0.,1.1342908437\H,0.4867183151,0.,-2.06013831
 27\C,-1.0279041365,0.,-0.5489655787\H,-1.9095147631,0.,-1.1670122825\C
 ,-0.8554858985,0.,0.8162713441\H,-1.6073641385,0.,1.5872085726\H,2.209
 6125631,0.,-0.159913029\C,1.1407968178,0.,-0.0290884493\N,0.2533777765
 ,0.,-1.0813549644\\Version=IBM-RS6000-G98RevA.4\State=1-A'\HF=-226.057
 3084\RMSD=3.223e-09\RMSF=1.719e-04\Dipole=-0.1723838,0.,-1.5766974\Dip
 oleDeriv=-0.3670228,0.0000012,0.0518148,0.0000976,-0.3136481,0.0000722
 ,0.033403,-0.0002326,-0.4969577,0.2067092,0.0000088,-0.0045035,0.00004
 7,0.4023534,0.0000326,-0.0019442,-0.0000544,0.1821221,-0.0199112,-0.00
 00825,-0.2261189,0.0000901,-0.1066505,0.0000933,-0.0365014,0.0000585,0
 .1967492,0.0267038,-0.0000178,-0.0448521,-0.0000404,0.1995,-0.0000049,
 -0.0721255,-0.0000177,0.0444086,0.1626792,0.0001157,-0.1007501,-0.0001
 458,-0.1411522,-0.0001155,-0.1133858,0.0000748,0.0792501,0.0081654,-0.
 0000113,0.0716452,0.0000267,0.1650754,0.0000347,0.0766687,-0.0000061,0
 .0376487,-0.0136138,0.0000319,0.0296364,-0.000014,0.1754445,-0.0000234
 ,0.0377609,-0.0000109,0.0796598,0.1279135,-0.0001153,0.0716119,0.00013
 03,-0.0061377,0.0000989,-0.0097999,0.0002523,0.5013245,-0.1316232,0.00
 00693,0.1515163,-0.0001915,-0.3747848,-0.0001879,0.085924,-0.0000639,-
 0.6242046\Polar=47.4479192,-0.0008069,16.0100532,-0.8220058,-0.0009631
 ,44.7631073\PG=CS [SG(C3H4N2)]\NImag=0\\0.47867405,0.00001302,0.105322
 49,-0.06289814,-0.00001825,0.54671807,-0.00343744,0.00000500,-0.007878
 35,0.08630906,0.00000061,0.00640226,-0.00000392,0.00000025,0.01584749,
 -0.00284498,-0.00002515,-0.00247040,-0.09675495,-0.00000122,0.46527707
 ,-0.03695461,-0.00002385,-0.01840831,0.00552406,-0.00000204,-0.0058412
 6,0.75942548,-0.00000456,0.01758659,-0.00001116,-0.00000012,-0.0045011
 2,-0.00000025,-0.00000236,0.12134678,-0.08512515,-0.00000719,-0.026475
 42,0.03122859,-0.00000101,-0.00100457,0.17314567,0.00000404,0.75684063
 ,0.00170327,0.00001527,0.00178197,0.00011399,0.00000092,0.00027196,-0.
 26747402,-0.00000115,-0.14608423,0.28002398,-0.00000124,0.00704372,-0.
 00000201,-0.00000043,-0.00123717,0.00000183,0.00000159,-0.02435856,0.0
 0000313,-0.00000286,0.02003422,-0.00347403,0.00000926,-0.00452785,-0.0
 0092591,0.00000048,0.00021765,-0.15711401,-0.00000132,-0.16812639,0.15
 773169,-0.00000181,0.16159567,-0.23979306,0.00000934,-0.02110237,-0.00
 833838,0.00000280,-0.00179245,-0.10315239,0.00000860,-0.02278348,0.005
 61406,0.00000004,-0.02277279,0.66061703,-0.00001235,-0.07197767,0.0000
 2032,-0.00000365,0.00315781,0.00001828,0.00001952,-0.07053291,0.000009
 86,-0.00001311,-0.00029047,-0.00000810,-0.00001214,0.14059524,-0.04603
 536,-0.00000396,-0.10145580,0.00335363,0.00000109,0.00107336,-0.033943
 98,0.00000578,-0.39646328,0.00381689,0.00000140,0.00204328,-0.17390074
 ,0.00000201,0.81012043,-0.01857358,-0.00001033,0.02078808,0.00073579,-
 0.00000090,0.00007569,0.00896679,0.00000144,-0.00798319,-0.00013051,0.
 00000105,0.00081978,-0.20218711,0.00001089,0.15622434,0.21619145,0.000
 00108,-0.00492191,-0.00000299,-0.00000003,0.00161926,0.00000022,-0.000
 00077,0.00060631,-0.00000201,0.00000072,-0.00238796,0.00000051,0.00000
 246,-0.03158675,0.00000043,-0.00000148,0.02441003,-0.00954191,0.000008
 08,0.01122104,0.00115268,0.00000051,0.00012217,0.02169702,-0.00000272,
 -0.00725965,-0.00059018,-0.00000095,-0.00030983,0.15907032,-0.00000881
 ,-0.22772530,-0.16587123,0.00000132,0.22765853,-0.00679338,-0.00000665
 ,0.00097576,-0.00051226,0.00000012,-0.00070769,0.00143041,0.00000183,-
 0.00230542,-0.00033213,0.00000123,0.00024570,0.00159102,0.00000559,0.0
 0162707,-0.00036271,-0.00000043,-0.00013671,0.38430227,0.00000023,-0.0
 0513312,-0.00000025,-0.00000006,-0.00121075,0.00000024,0.00000039,0.00
 288517,0.00000111,-0.00000093,0.00160441,-0.00000057,-0.00000096,0.007
 28292,0.00000010,0.00000036,0.00099294,-0.00000027,0.00000068,0.021271
 79,0.02914989,0.00000022,-0.00032706,0.00048856,-0.00000016,0.00023107
 ,-0.00122816,-0.00000061,-0.00574411,-0.00091899,-0.00000018,0.0009900
 6,0.00303746,-0.00000004,-0.00409889,0.00134715,-0.00000004,0.00064136
 ,-0.03826621,-0.00000007,0.06224670,-0.16618804,0.00000475,0.11175507,
 0.01699749,-0.00000148,0.01588995,-0.09635319,-0.00000591,-0.00032709,
 -0.00235658,-0.00000244,0.00479615,-0.09530236,-0.00000079,0.02116860,
 -0.00533254,-0.00000097,-0.00463085,-0.36798162,-0.00000103,0.03733309
 ,0.91916330,0.00000228,-0.07760215,-0.00000809,-0.00000085,-0.00541513
 ,0.00000428,0.00000031,0.01871050,-0.00000752,0.00000192,0.00312234,0.
 00000141,0.00000801,0.01037859,0.00000182,-0.00000408,0.00553009,0.000
 00357,-0.00000076,-0.02592651,-0.00000016,-0.00000445,0.13941115,0.149
 92049,0.00002868,-0.31275605,-0.02040610,0.00000464,-0.01087903,-0.044
 11808,0.00001215,-0.01183372,0.00360326,0.00000084,-0.00540009,0.06823
 825,-0.00002760,-0.00991091,-0.00156241,0.00000284,0.00068391,0.032820
 30,-0.00000021,-0.06020362,-0.09324026,0.00000596,0.61634919,-0.008637
 22,-0.00000656,-0.02501370,-0.09739231,-0.00000028,0.09170374,-0.27141
 254,0.00000224,0.06023431,-0.01716207,0.00000306,0.02069342,-0.0190488
 3,0.00000602,0.06768956,0.00069242,-0.00000057,-0.00114915,-0.01134159
 ,0.00000133,-0.03094278,-0.20264647,-0.00000237,-0.09525544,0.62694861
 ,0.00000093,0.02327978,0.00002634,-0.00000011,-0.01466265,0.00000177,0
 .00000721,-0.06174276,-0.00000041,-0.00000078,-0.00353054,0.00000015,-
 0.00001816,0.01297325,-0.00000867,0.00000305,0.00573800,-0.00000074,-0
 .00000161,-0.00176684,0.00000103,0.00001234,-0.06820888,-0.00002729,-0
 .00000288,0.10792063,0.03084919,0.00000831,-0.10992652,0.08974185,-0.0
 0000042,-0.45256730,0.06581111,-0.00000591,-0.13993350,-0.01961237,-0.
 00000225,0.01351750,0.01200581,-0.00000592,-0.07358290,-0.00383820,-0.
 00000028,-0.00503223,0.00574720,-0.00000008,0.00626450,-0.09274465,-0.
 00000127,-0.20604969,-0.08795995,0.00000781,0.96731013\\-0.00036051,0.
 ,-0.00005108,0.00001404,0.,0.00001491,-0.00028250,0.,0.00024265,0.0000
 4294,0.,0.00000537,0.00034450,0.,0.00003658,-0.00002214,0.,-0.00006060
 ,-0.00007214,0.,0.00000093,0.00037186,0.,0.00025003,-0.00003604,0.,-0.
 00043879\\\@

    UPON JULIA'S CLOTHES

 WHENAS IN SILKS MY JULIA GOES,
 THEN, THEN, METHINKS, HOW SWEETLY FLOWS
 THAT LIQUEFACTION OF HER CLOTHES.

 NEXT, WHEN I CAST MINE EYES, AND SEE
 THAT BRAVE VIBRATION, EACH WAY FREE,
 O, HOW THAT GLITTERING TAKETH ME!
     -- ROBERT HERRICK, 1648
 Job cpu time:  0 days  0 hours  6 minutes 56.7 seconds.
 File lengths (MBytes):  RWF=   10 Int=    0 D2E=    0 Chk=    3 Scr=    1
 Normal termination of Gaussian 98.
