 Gaussian 98, Revision A.7,
 Gaussian 98:  SGI64-G98RevA.7 11-Apr-1999

 ------------------------
 #B3PW91/cc-pVTZ opt freq
 ------------------------

 --------------------------------
 1H imidazole C3H4N2 casno=288324
 --------------------------------
 Symbolic Z-matrix:
 Charge =  0 Multiplicity = 1

 SCF Done:  E(RB+HF-PW91) =  -226.156882636     A.U. after   13 cycles
 SCF Done:  E(RB+HF-PW91) =  -226.205915542     A.U. after   12 cycles
 SCF Done:  E(RB+HF-PW91) =  -226.212320684     A.U. after   11 cycles
 SCF Done:  E(RB+HF-PW91) =  -226.212562881     A.U. after    9 cycles
 SCF Done:  E(RB+HF-PW91) =  -226.212638060     A.U. after    9 cycles
 SCF Done:  E(RB+HF-PW91) =  -226.212642323     A.U. after    8 cycles
 Optimization completed.
    -- Stationary point found.
 Normal termination of Gaussian 98.

 --------------------------------------------------
 #N Geom=AllCheck Guess=TCheck RB3PW91/CC-pVTZ Freq
 --------------------------------------------------

 1H imidazole C3H4N2 casno=288324
 --------------------------------
 Redundant internal coordinates taken from checkpointfile:
 /wrk/Gau-89505.chk
 Charge =  0 Multiplicity = 1

                         Standard orientation:
 ---------------------------------------------------------------------
 Center     Atomic     Atomic              Coordinates (Angstroms)
 Number     Number      Type              X           Y           Z
 ---------------------------------------------------------------------
    1          7             0       -0.738005   -0.979939    0.000000
    2          1             0       -0.009023    2.103465    0.000000
    3          6             0        1.113595    0.298378    0.000000
    4          1             0        2.111670    0.701200    0.000000
    5          6             0        0.631877   -0.980157    0.000000
    6          1             0        1.195760   -1.899169    0.000000
    7          1             0       -2.095008    0.661074    0.000000
    8          6             0       -1.085032    0.281689    0.000000
    9          7             0        0.000000    1.099077    0.000000
 ---------------------------------------------------------------------

 SCF Done:  E(RB+HF-PW91) =  -226.212642322     A.U. after    1 cycles

  The electronic state is 1-A'.
 Alpha  occ. eigenvalues --  -14.37076 -14.28834 -10.21430 -10.19175 -10.17334
 Alpha  occ. eigenvalues --   -1.02617  -0.87860  -0.75046  -0.62278  -0.59667
 Alpha  occ. eigenvalues --   -0.56836  -0.44572  -0.44167  -0.44130  -0.40994
 Alpha  occ. eigenvalues --   -0.29130  -0.27392  -0.23832
 Alpha virt. eigenvalues --    0.01907   0.03647   0.05780   0.08600   0.09136
 Alpha virt. eigenvalues --    0.10980   0.17100   0.19132   0.20470   0.23071
 Alpha virt. eigenvalues --    0.28531   0.29209   0.31587   0.34015   0.34369

  Exact polarizability:  52.712  -1.030  50.151   0.004   0.002  27.056
 Approx polarizability:  82.309   1.068  83.427   0.000   0.000  40.163

                     1                      2                      3
                    A"                     A"                     A"
 Frequencies --   540.9632               651.2324               686.3289
 Red. masses --     1.5235                 2.1787                 2.8198
 Frc consts  --     0.2627                 0.5444                 0.7826
 IR Inten    --    87.0928                10.4784                 4.2060
 Raman Activ --     0.0000                 0.0000                 0.0000

                     4                      5                      6
                    A"                     A"                     A"
 Frequencies --   739.7598               825.1374               881.5978
 Red. masses --     1.2368                 1.3937                 1.3605
 Frc consts  --     0.3988                 0.5591                 0.6230
 IR Inten    --    37.3606                32.2265                 3.7824
 Raman Activ --     0.0000                 0.0000                 0.0000

                     7                      8                      9
                    A'                     A'                     A'
 Frequencies --   905.4575               945.5159              1080.4761
 Red. masses --     5.2786                 4.3955                 1.5584
 Frc consts  --     2.5498                 2.3152                 1.0719
 IR Inten    --     8.5149                 1.7129                34.0111
 Raman Activ --     0.0000                 0.0000                 0.0000

                    10                     11                     12
                    A'                     A'                     A'
 Frequencies --  1101.5359              1149.9423              1180.4639
 Red. masses --     1.4824                 1.3512                 6.5564
 Frc consts  --     1.0597                 1.0527                 5.3830
 IR Inten    --    21.6576                 2.9018                 3.9044
 Raman Activ --     0.0000                 0.0000                 0.0000

                    13                     14                     15
                    A'                     A'                     A'
 Frequencies --  1283.9905              1378.8891              1444.3475
 Red. masses --     1.3814                 3.5254                 3.1526
 Frc consts  --     1.3418                 3.9492                 3.8749
 IR Inten    --     0.3935                 6.1915                12.5391
 Raman Activ --     0.0000                 0.0000                 0.0000

                    16                     17                     18
                    A'                     A'                     A'
 Frequencies --  1512.3366              1565.2864              3244.6758
 Red. masses --     3.2758                 3.3590                 1.0926
 Frc consts  --     4.4143                 4.8490                 6.7773
 IR Inten    --    15.9935                12.1602                 6.1173
 Raman Activ --     0.0000                 0.0000                 0.0000

                    19                     20                     21
                    A'                     A'                     A'
 Frequencies --  3247.6078              3278.3103              3675.6303
 Red. masses --     1.0969                 1.1045                 1.0815
 Frc consts  --     6.8160                 6.9941                 8.6085
 IR Inten    --     0.2222                 1.0701                55.9620
 Raman Activ --     0.0000                 0.0000                 0.0000

 - Thermochemistry -
 -------------------
 Temperature   298.150 Kelvin.  Pressure   1.00000 Atm.
 Atom  1 has atomic number  7 and mass  14.00307

 Molecular mass:    68.03745 amu.
 Principal axes and moments of inertia in atomic units:
                           1         2         3
     EIGENVALUES --   183.45203 190.33167 373.78370
           X            0.45131   0.89237   0.00000
           Y            0.89237  -0.45131   0.00000
           Z            0.00000   0.00000   1.00000
 THIS MOLECULE IS AN ASYMMETRIC TOP.
 ROTATIONAL SYMMETRY NUMBER  1.
 ROTATIONAL TEMPERATURES (KELVIN)      0.47213     0.45507     0.23172
 ROTATIONAL CONSTANTS (GHZ)            9.83767     9.48209     4.82830
 Zero-point vibrational energy     187332.1 (Joules/Mol)
                                   44.77346 (Kcal/Mol)
 WARNING-- EXPLICIT CONSIDERATION OF   1 DEGREES OF FREEDOM AS
           VIBRATIONS MAY CAUSE SIGNIFICANT ERROR
 VIBRATIONAL TEMPERATURES:    778.32   936.97   987.47  1064.34  1187.18
          (KELVIN)           1268.42  1302.74  1360.38  1554.56  1584.86
                             1654.50  1698.41  1847.37  1983.90  2078.08
                             2175.90  2252.08  4668.34  4672.56  4716.73
                             5288.38

 Zero-point correction=                           0.071351 (Hartree/Particle)
 Thermal correction to Energy=                    0.075082
 Thermal correction to Enthalpy=                  0.076026
 Thermal correction to Gibbs Free Energy=         0.045109
 Sum of electronic and zero-point Energies=           -226.141291
 Sum of electronic and thermal Energies=              -226.137561
 Sum of electronic and thermal Enthalpies=            -226.136617
 Sum of electronic and thermal Free Energies=         -226.167534

                     E (Thermal)             CV                S
                      KCAL/MOL        CAL/MOL-KELVIN    CAL/MOL-KELVIN
 TOTAL                   47.114             13.252             65.071
 ELECTRONIC               0.000              0.000              0.000
 TRANSLATIONAL            0.889              2.981             38.570
 ROTATIONAL               0.889              2.981             24.083
 VIBRATIONAL             45.337              7.291              2.418
 VIBRATION  1             0.896              1.160              0.563
                       Q            LOG10(Q)             LN(Q)
 TOTAL BOT       0.178501D-20        -20.748360        -47.774864
 TOTAL V=0       0.117658D+13         12.070621         27.793632
 VIB (BOT)       0.197871D-32        -32.703619        -75.302864
 VIB (BOT)  1    0.292611D+00         -0.533710         -1.228912
 VIB (V=0)       0.130425D+01          0.115362          0.265631
 VIB (V=0)  1    0.107933D+01          0.033153          0.076339
 ELECTRONIC      0.100000D+01          0.000000          0.000000
 TRANSLATIONAL   0.220588D+08          7.343582         16.909224
 ROTATIONAL      0.408956D+05          4.611676         10.618777
 ***** Axes restored to original set *****
 -------------------------------------------------------------------
 Center     Atomic                   Forces (Hartrees/Bohr)
 Number     Number              X              Y              Z
 -------------------------------------------------------------------
    1          7           0.000252322    0.000000000    0.000169974
    2          1          -0.000024561    0.000000000    0.000014099
    3          6           0.000180570    0.000000000   -0.000231980
    4          1           0.000002608    0.000000000    0.000052875
    5          6          -0.000347990    0.000000000    0.000018184
    6          1           0.000065142    0.000000000   -0.000021289
    7          1          -0.000024191    0.000000000    0.000022005
    8          6          -0.000108590    0.000000000   -0.000246242
    9          7           0.000004690    0.000000000    0.000222375
 -------------------------------------------------------------------
 Cartesian Forces:  Max     0.000347990 RMS     0.000126444

 GradGradGradGradGradGradGradGradGradGradGradGradGradGradGradGradGradGrad
 Berny optimization.
 Internal  Forces:  Max     0.000222450 RMS     0.000062334
 Search for a local minimum.
 Step number   1 out of a maximum of  48
 All quantities printed in internal units (Hartrees-Bohrs-Radians)
 Second derivative matrix not updated -- analytic derivatives used.
     Eigenvalues ---    0.00556   0.01132   0.02033   0.02739   0.06029
     Eigenvalues ---    0.06259   0.09634   0.10332   0.10815   0.11637
     Eigenvalues ---    0.22934   0.24429   0.34937   0.36968   0.37332
     Eigenvalues ---    0.37661   0.41031   0.45079   0.47375   0.48358
     Eigenvalues ---    0.584811000.000001000.000001000.000001000.00000
     Eigenvalues --- 1000.000001000.000001000.000001000.000001000.00000
     Eigenvalues --- 1000.000001000.000001000.000001000.000001000.00000
     Eigenvalues --- 1000.000001000.000001000.00000
 Angle between quadratic step and forces=  28.21 degrees.
 Linear search not attempted -- first point.
 Iteration  1 RMS(Cart)=  0.00013950 RMS(Int)=  0.00000003
 Iteration  2 RMS(Cart)=  0.00000003 RMS(Int)=  0.00000001
 Variable       Old X    -DE/DX   Delta X   Delta X   Delta X     New X
                                 (Linear)    (Quad)   (Total)
    R1        2.58870   0.00022   0.00000   0.00072   0.00072   2.58942
    R2        2.47268   0.00007   0.00000   0.00016   0.00016   2.47284
    R3        1.89809  -0.00002   0.00000  -0.00003  -0.00003   1.89806
    R4        2.03391  -0.00003   0.00000  -0.00008  -0.00008   2.03383
    R5        2.58188   0.00006   0.00000   0.00011   0.00011   2.58199
    R6        2.59190  -0.00015   0.00000  -0.00042  -0.00042   2.59148
    R7        2.03753  -0.00006   0.00000  -0.00019  -0.00019   2.03734
    R8        2.03879  -0.00003   0.00000  -0.00006  -0.00006   2.03873
    R9        2.56712  -0.00016   0.00000  -0.00046  -0.00046   2.56666
    A1        1.83938  -0.00010   0.00000  -0.00031  -0.00031   1.83907
    A2        2.31473  -0.00006   0.00000  -0.00054  -0.00054   2.31419
    A3        2.13461   0.00003   0.00000   0.00044   0.00044   2.13504
    A4        1.83385   0.00002   0.00000   0.00010   0.00010   1.83395
    A5        1.93096  -0.00006   0.00000  -0.00019  -0.00019   1.93077
    A6        2.12130   0.00000   0.00000  -0.00030  -0.00030   2.12099
    A7        2.23093   0.00006   0.00000   0.00050   0.00050   2.23142
    A8        2.19855  -0.00005   0.00000  -0.00031  -0.00031   2.19824
    A9        1.94800   0.00006   0.00000   0.00020   0.00020   1.94820
   A10        2.13663  -0.00001   0.00000   0.00011   0.00011   2.13674
   A11        2.20316  -0.00006   0.00000  -0.00028  -0.00028   2.20287
   A12        2.20744  -0.00002   0.00000   0.00008   0.00008   2.20752
   A13        1.87258   0.00008   0.00000   0.00020   0.00020   1.87279
    D1        0.00000   0.00000   0.00000   0.00000   0.00000   0.00000
    D2        3.14159   0.00000   0.00000   0.00000   0.00000   3.14159
    D3        3.14159   0.00000   0.00000   0.00000   0.00000   3.14159
    D4        0.00000   0.00000   0.00000   0.00000   0.00000   0.00000
    D5        3.14159   0.00000   0.00000   0.00000   0.00000   3.14159
    D6        0.00000   0.00000   0.00000   0.00000   0.00000   0.00000
    D7        0.00000   0.00000   0.00000   0.00000   0.00000   0.00000
    D8        3.14159   0.00000   0.00000   0.00000   0.00000   3.14159
    D9        0.00000   0.00000   0.00000   0.00000   0.00000   0.00000
   D10        3.14159   0.00000   0.00000   0.00000   0.00000   3.14159
   D11        3.14159   0.00000   0.00000   0.00000   0.00000   3.14159
   D12        0.00000   0.00000   0.00000   0.00000   0.00000   0.00000
   D13        3.14159   0.00000   0.00000   0.00000   0.00000   3.14159
   D14        0.00000   0.00000   0.00000   0.00000   0.00000   0.00000
   D15        0.00000   0.00000   0.00000   0.00000   0.00000   0.00000
   D16        3.14159   0.00000   0.00000   0.00000   0.00000   3.14159
         Item               Value     Threshold  Converged?
 Maximum Force            0.000222     0.000450     YES
 RMS     Force            0.000062     0.000300     YES
 Maximum Displacement     0.000373     0.001800     YES
 RMS     Displacement     0.000140     0.001200     YES
 Predicted change in Energy=-2.527728D-07
 Optimization completed.
    -- Stationary point found.
                         ----------------------------
                         !   Optimized Parameters   !
                         ! (Angstroms and Degrees)  !
 ------------------------                            -------------------------
 ! Name  Definition              Value          Derivative Info.             !
 -----------------------------------------------------------------------------
 ! R1    R(1,5)                  1.3699         -DE/DX =    0.0002           !
 ! R2    R(1,8)                  1.3085         -DE/DX =    0.0001           !
 ! R3    R(2,9)                  1.0044         -DE/DX =    0.               !
 ! R4    R(3,4)                  1.0763         -DE/DX =    0.               !
 ! R5    R(3,5)                  1.3663         -DE/DX =    0.0001           !
 ! R6    R(3,9)                  1.3716         -DE/DX =   -0.0001           !
 ! R7    R(5,6)                  1.0782         -DE/DX =   -0.0001           !
 ! R8    R(7,8)                  1.0789         -DE/DX =    0.               !
 ! R9    R(8,9)                  1.3585         -DE/DX =   -0.0002           !
 ! A1    A(5,1,8)              105.3887         -DE/DX =   -0.0001           !
 ! A2    A(4,3,5)              132.624          -DE/DX =   -0.0001           !
 ! A3    A(4,3,9)              122.3041         -DE/DX =    0.               !
 ! A4    A(5,3,9)              105.0719         -DE/DX =    0.               !
 ! A5    A(1,5,3)              110.636          -DE/DX =   -0.0001           !
 ! A6    A(1,5,6)              121.5414         -DE/DX =    0.               !
 ! A7    A(3,5,6)              127.8227         -DE/DX =    0.0001           !
 ! A8    A(1,8,7)              125.9676         -DE/DX =    0.               !
 ! A9    A(1,8,9)              111.6123         -DE/DX =    0.0001           !
 ! A10   A(7,8,9)              122.4201         -DE/DX =    0.               !
 ! A11   A(2,9,3)              126.2317         -DE/DX =   -0.0001           !
 ! A12   A(2,9,8)              126.4772         -DE/DX =    0.               !
 ! A13   A(3,9,8)              107.2912         -DE/DX =    0.0001           !
 ! D1    D(8,1,5,3)              0.             -DE/DX =    0.               !
 ! D2    D(8,1,5,6)            180.             -DE/DX =    0.               !
 ! D3    D(5,1,8,7)            180.             -DE/DX =    0.               !
 ! D4    D(5,1,8,9)              0.             -DE/DX =    0.               !
 ! D5    D(4,3,5,1)            180.             -DE/DX =    0.               !
 ! D6    D(4,3,5,6)              0.             -DE/DX =    0.               !
 ! D7    D(9,3,5,1)              0.             -DE/DX =    0.               !
 ! D8    D(9,3,5,6)            180.             -DE/DX =    0.               !
 ! D9    D(4,3,9,2)              0.             -DE/DX =    0.               !
 ! D10   D(4,3,9,8)            180.             -DE/DX =    0.               !
 ! D11   D(5,3,9,2)            180.             -DE/DX =    0.               !
 ! D12   D(5,3,9,8)              0.             -DE/DX =    0.               !
 ! D13   D(1,8,9,2)            180.             -DE/DX =    0.               !
 ! D14   D(1,8,9,3)              0.             -DE/DX =    0.               !
 ! D15   D(7,8,9,2)              0.             -DE/DX =    0.               !
 ! D16   D(7,8,9,3)            180.             -DE/DX =    0.               !
 -----------------------------------------------------------------------------
 GradGradGradGradGradGradGradGradGradGradGradGradGradGradGradGradGradGrad

 1\1\ NATIONAL INSTITUTE OF STANDARDS AND TECHNOLOGY-NEVA\Freq\RB3PW91\
 CC-pVTZ\C3H4N2\RDJ3\08-May-2001\0\\#N GEOM=ALLCHECK GUESS=TCHECK RB3PW
 91/CC-PVTZ FREQ\\1H imidazole C3H4N2 casno=288324\\0,1\N,0.495078279,0
 .,1.1224212966\H,0.4884896665,0.,-2.04597777\C,-1.0162032194,0.,-0.544
 4753238\H,-1.896112369,0.,-1.1642983894\C,-0.8387549526,0.,0.810225374
 2\H,-1.5973640356,0.,1.576423753\H,2.1905617874,0.,-0.1658773772\C,1.1
 206797886,0.,-0.0268194467\N,0.2506496141,0.,-1.0701147022\\Version=SG
 I64-G98RevA.7\State=1-A'\HF=-226.2126423\RMSD=9.590e-10\RMSF=1.264e-04
 \Dipole=-0.1007183,0.,-1.4560576\DipoleDeriv=-0.3691103,0.0000282,-0.0
 436835,-0.000038,-0.3063246,0.0000119,-0.0208596,-0.0000296,-0.5772074
 ,0.1777484,0.0000452,-0.0098645,-0.0000104,0.3075676,0.0000164,-0.0129
 303,-0.000127,0.1992236,-0.0173008,-0.0000924,-0.2445191,-0.000002,-0.
 1482939,-0.0000174,-0.0391459,-0.0000429,0.1590486,0.0247429,0.0001163
 ,-0.0423562,0.0000064,0.187728,-0.0000114,-0.0609937,0.0000817,0.03681
 89,0.1712594,0.0000706,-0.0160467,0.0000211,-0.1336717,0.0000032,-0.06
 4444,-0.0001878,0.1426992,-0.0052618,-0.0000651,0.0580787,-0.0000021,0
 .1546472,-0.0000068,0.0791668,0.0000791,0.0369331,-0.0181382,-0.000013
 1,0.0367032,-0.0000014,0.1587055,0.0000049,0.0327139,0.0000027,0.06615
 42,0.1069964,0.000127,0.08954,0.0000002,-0.0051507,0.0000033,0.0233188
 ,0.0001486,0.5236129,-0.0709323,-0.0002167,0.1721474,0.0000261,-0.2152
 074,-0.0000041,0.0631711,0.0000752,-0.5872815\Polar=53.0359046,0.00303
 63,27.0557117,-0.3545558,0.0027987,49.8265736\PG=CS [SG(C3H4N2)]\NImag
 =0\\0.49744710,0.00000138,0.10589622,-0.05800325,-0.00000072,0.5776327
 5,-0.00297246,0.00000035,-0.00817319,0.08130306,-0.00000011,0.00688062
 ,-0.00000029,0.00000006,0.01182360,-0.00303176,-0.00000003,-0.00350979
 ,-0.09771546,-0.00000035,0.45630321,-0.03359376,-0.00000146,-0.0135551
 0,0.00662938,-0.00000023,-0.00271967,0.74832188,-0.00000095,0.01790950
 ,0.00000033,0.00000020,-0.00706032,-0.00000102,0.00000023,0.11403050,-
 0.08824785,-0.00000126,-0.02097230,0.02803019,0.00000056,-0.00106768,0
 .15834918,0.00000087,0.73757800,0.00162265,0.00000170,0.00108804,0.000
 25886,-0.00000010,0.00003003,-0.25533020,-0.00000047,-0.13892880,0.269
 44251,-0.00000006,0.00686440,-0.00000002,0.00000003,-0.00131077,-0.000
 00037,0.00000015,-0.02197111,0.00000047,-0.00000023,0.01884027,-0.0042
 0496,0.00000116,-0.00546816,-0.00100405,-0.00000015,0.00017879,-0.1492
 1161,-0.00000032,-0.16396018,0.15286594,-0.00000017,0.15672777,-0.2618
 1311,0.00000209,-0.03959855,-0.00834530,-0.00000025,-0.00112134,-0.099
 37518,-0.00000047,-0.01768830,0.00492845,-0.00000037,-0.02164372,0.665
 54856,-0.00000139,-0.07192756,0.00000030,-0.00000036,0.00248324,0.0000
 0057,0.00000078,-0.06858339,0.00000101,-0.00000148,-0.00083965,-0.0000
 0097,-0.00000064,0.13716431,-0.04873574,-0.00000262,-0.11093412,0.0035
 3019,-0.00000015,0.00053134,-0.03593467,0.00000024,-0.38875225,0.00150
 375,0.00000009,0.00269764,-0.15546474,0.00000210,0.79224114,-0.0196525
 9,-0.00000177,0.02048015,0.00080128,0.00000021,-0.00002969,0.00848640,
 0.00000065,-0.00557119,-0.00023033,0.00000019,0.00069195,-0.19298513,0
 .00000115,0.14637274,0.20920809,0.00000019,-0.00494342,0.00000007,0.00
 000008,0.00193508,-0.00000022,-0.00000007,0.00022823,-0.00000017,0.000
 00017,-0.00232528,0.00000012,0.00000010,-0.02989894,-0.00000033,-0.000
 00017,0.02344684,-0.00629805,0.00000172,0.01193166,0.00115978,-0.00000
 019,0.00020989,0.02044675,-0.00000057,-0.00783549,-0.00053477,-0.00000
 014,-0.00016140,0.14845547,-0.00000120,-0.21542891,-0.15844049,0.00000
 019,0.21533195,-0.00879603,0.00000034,0.00427395,-0.00050822,-0.000000
 44,-0.00042825,0.00098516,-0.00000002,-0.00312632,-0.00029929,-0.00000
 039,0.00035451,0.00115411,-0.00000019,0.00250643,-0.00030818,0.0000001
 0,-0.00016502,0.36578831,0.00000030,-0.00491438,-0.00000014,0.00000004
 ,-0.00140728,-0.00000011,-0.00000020,0.00276135,0.00000006,0.00000021,
 0.00181128,0.00000012,-0.00000017,0.00693513,-0.00000031,-0.00000004,0
 .00112033,0.00000006,-0.00000023,0.02119955,0.02906380,-0.00000008,0.0
 0057593,0.00054376,0.00000003,0.00038586,-0.00118028,-0.00000003,-0.00
 577147,-0.00099570,0.00000009,0.00097928,0.00322824,0.00000003,-0.0042
 5464,0.00131191,0.,0.00064792,-0.03858025,0.00000003,0.06136287,-0.167
 16621,-0.00000064,0.12017459,0.01785071,0.00000070,0.01363503,-0.09513
 718,0.00000120,0.00424114,-0.00316670,0.00000053,0.00416480,-0.0913069
 4,0.00000019,0.01566279,-0.00595440,-0.00000005,-0.00347984,-0.3451410
 4,0.00000012,0.03594026,0.89807201,0.00000069,-0.07831366,-0.00000011,
 0.00000003,-0.00829047,-0.00000035,0.00000010,0.01695179,0.00000006,0.
 00000026,0.00288646,0.00000009,-0.00000082,0.01072940,-0.00000036,-0.0
 0000005,0.00532787,0.00000014,-0.00000048,-0.02593797,0.00000013,0.000
 00038,0.13850374,0.14228331,0.00000177,-0.34145061,-0.01632460,0.00000
 021,-0.01083342,-0.04674311,0.00000047,-0.01124426,0.00376317,-0.00000
 035,-0.00522002,0.07674206,-0.00000118,-0.00191072,-0.00176362,0.00000
 013,0.00064930,0.03097190,-0.00000003,-0.06101623,-0.08525992,-0.00000
 046,0.64346635,-0.00507534,-0.00000198,-0.02668666,-0.09501732,0.00000
 017,0.09138112,-0.28098655,-0.00000037,0.06294157,-0.01722594,0.000000
 13,0.01798716,-0.01780549,0.00000195,0.07055949,0.00063483,-0.00000036
 ,-0.00114378,-0.01287476,-0.00000002,-0.02933173,-0.20805055,-0.000000
 12,-0.10366921,0.63640119,-0.00000006,0.02254826,0.00000057,-0.0000004
 4,-0.00505369,0.00000189,0.00000071,-0.05426656,-0.00000157,-0.0000000
 7,-0.00395559,0.00000012,0.00000055,0.01393744,0.00000133,-0.00000018,
 0.00510933,0.,0.00000130,-0.00156799,-0.00000019,-0.00000242,-0.061857
 16,-0.00000058,0.00000061,0.08510591,0.03717432,0.00000006,-0.10780489
 ,0.08995338,0.00000032,-0.44219815,0.07054857,0.00000002,-0.13797434,-
 0.01879157,0.00000041,0.01422635,0.00709103,-0.00000065,-0.07418994,-0
 .00305189,0.00000021,-0.00534475,0.00419323,0.00000032,0.00709047,-0.1
 0507862,0.00000086,-0.21244043,-0.08203837,-0.00000156,0.95863535\\-0.
 00025232,0.,-0.00016997,0.00002456,0.,-0.00001410,-0.00018057,0.,0.000
 23198,-0.00000261,0.,-0.00005287,0.00034799,0.,-0.00001818,-0.00006514
 ,0.,0.00002129,0.00002419,0.,-0.00002201,0.00010859,0.,0.00024624,-0.0
 0000469,0.,-0.00022237\\\@

 IF GOD HAD MEANT MAN TO SEE THE SUN RISE, HE
 WOULD HAVE SCHEDULED IT FOR A LATER HOUR.
 Job cpu time:  0 days  3 hours 28 minutes 31.7 seconds.
 File lengths (MBytes):  RWF=   47 Int=    0 D2E=    0 Chk=    6 Scr=    1
 Normal termination of Gaussian 98.
