 Gaussian 98, Revision A.6,
 Gaussian 98:  IBM-RS6000-G98RevA.6 19-Oct-1998

 ----------------------
 #B3PW91/3-21G opt freq
 ----------------------

 --------------------------------
 1H imidazole C3H4N2 casno=288324
 --------------------------------
 Symbolic Z-matrix:
 Charge =  0 Multiplicity = 1

 SCF Done:  E(RB+HF-PW91) =  -224.803547055     A.U. after   14 cycles
 SCF Done:  E(RB+HF-PW91) =  -224.863994590     A.U. after   13 cycles
 SCF Done:  E(RB+HF-PW91) =  -224.875522505     A.U. after   13 cycles
 SCF Done:  E(RB+HF-PW91) =  -224.876004359     A.U. after   11 cycles
 SCF Done:  E(RB+HF-PW91) =  -224.876183441     A.U. after   10 cycles
 SCF Done:  E(RB+HF-PW91) =  -224.876213149     A.U. after    9 cycles
 Optimization completed.
    -- Stationary point found.
 Normal termination of Gaussian 98.

 ------------------------------------------------
 #N Geom=AllCheck Guess=TCheck RB3PW91/3-21G Freq
 ------------------------------------------------

 1H imidazole C3H4N2 casno=288324
 --------------------------------
 Redundant internal coordinates taken from checkpointfile:
 /wrk/rdj3/Gau-27336.chk
 Charge =  0 Multiplicity = 1

                         Standard orientation:
 ---------------------------------------------------------------------
 Center     Atomic     Atomic              Coordinates (Angstroms)
 Number     Number      Type              X           Y           Z
 ---------------------------------------------------------------------
    1          7             0       -0.749222   -0.991516    0.000000
    2          1             0        0.001090    2.125590    0.000000
    3          6             0        1.127202    0.297956    0.000000
    4          1             0        2.127736    0.693120    0.000000
    5          6             0        0.649111   -0.990387    0.000000
    6          1             0        1.211143   -1.908044    0.000000
    7          1             0       -2.114826    0.663662    0.000000
    8          6             0       -1.106412    0.287342    0.000000
    9          7             0        0.000000    1.113830    0.000000
 ---------------------------------------------------------------------

 SCF Done:  E(RB+HF-PW91) =  -224.876213149     A.U. after    1 cycles

  The electronic state is 1-A'.
 Alpha  occ. eigenvalues --  -14.31055 -14.22412 -10.17007 -10.14845 -10.12625
 Alpha  occ. eigenvalues --   -1.02672  -0.87930  -0.75135  -0.62051  -0.59618
 Alpha  occ. eigenvalues --   -0.56926  -0.44705  -0.44466  -0.43142  -0.41400
 Alpha  occ. eigenvalues --   -0.27898  -0.25021  -0.23573
 Alpha virt. eigenvalues --    0.03092   0.07512   0.10314   0.15542   0.17361
 Alpha virt. eigenvalues --    0.19715   0.23481   0.25600   0.36223   0.39748
 Alpha virt. eigenvalues --    0.46945   0.69090   0.71180   0.72818   0.75638

  Exact polarizability:  44.467  -1.862  42.485   0.001   0.000  12.941
 Approx polarizability:  69.800   1.655  74.743   0.000   0.000  16.171

                     1                      2                      3
                    A"                     A"                     A"
 Frequencies --   648.0135               665.4920               687.7608
 Red. masses --     2.7278                 1.2090                 3.0410
 Frc consts  --     0.6749                 0.3155                 0.8475
 IR Inten    --    61.7667               123.1925                 2.9337
 Raman Activ --     0.0000                 0.0000                 0.0000

                     4                      5                      6
                    A"                     A"                     ?A
 Frequencies --   778.9084               854.5393               920.9198
 Red. masses --     1.2509                 1.4283                 5.9895
 Frc consts  --     0.4472                 0.6145                 2.9929
 IR Inten    --    37.2832                26.0505                10.6951
 Raman Activ --     0.0000                 0.0000                 0.0000

                     7                      8                      9
                    ?A                     A'                     A'
 Frequencies --   921.3954               964.1059              1059.2697
 Red. masses --     1.4029                 4.2836                 1.9900
 Frc consts  --     0.7017                 2.3459                 1.3156
 IR Inten    --     3.0962                 3.4743                26.2793
 Raman Activ --     0.0000                 0.0000                 0.0000

                    10                     11                     12
                    A'                     A'                     A'
 Frequencies --  1096.3208              1120.0857              1159.7525
 Red. masses --     1.8242                 6.1582                 1.3863
 Frc consts  --     1.2918                 4.5521                 1.0986
 IR Inten    --    15.4378                16.5612                 0.8838
 Raman Activ --     0.0000                 0.0000                 0.0000

                    13                     14                     15
                    A'                     A'                     A'
 Frequencies --  1281.4502              1332.8776              1401.3835
 Red. masses --     1.5325                 2.9544                 2.1484
 Frc consts  --     1.4828                 3.0924                 2.4859
 IR Inten    --     1.0207                10.7306                11.2880
 Raman Activ --     0.0000                 0.0000                 0.0000

                    16                     17                     18
                    A'                     A'                     A'
 Frequencies --  1469.6184              1538.1257              3300.6263
 Red. masses --     2.6526                 2.5739                 1.0912
 Frc consts  --     3.3754                 3.5878                 7.0038
 IR Inten    --     5.8910                21.2934                 3.1209
 Raman Activ --     0.0000                 0.0000                 0.0000

                    19                     20                     21
                    A'                     A'                     A'
 Frequencies --  3304.0962              3328.5901              3615.3891
 Red. masses --     1.0968                 1.1075                 1.0816
 Frc consts  --     7.0549                 7.2296                 8.3299
 IR Inten    --     0.2810                 1.1330                58.4700
 Raman Activ --     0.0000                 0.0000                 0.0000

 - Thermochemistry -
 -------------------
 Temperature   298.150 Kelvin.  Pressure   1.00000 Atm.
 Atom  1 has atomic number  7 and mass  14.00307

 Molecular mass:    68.03745 amu.
 Principal axes and moments of inertia in atomic units:
                           1         2         3
     EIGENVALUES --   189.33001 194.41783 383.74784
           X            0.50424   0.86356   0.00000
           Y            0.86356  -0.50424   0.00000
           Z            0.00000   0.00000   1.00000
 THIS MOLECULE IS AN ASYMMETRIC TOP.
 ROTATIONAL SYMMETRY NUMBER  1.
 ROTATIONAL TEMPERATURES (KELVIN)      0.45747     0.44550     0.22570
 ROTATIONAL CONSTANTS (GHZ)            9.53225     9.28280     4.70294
 Zero-point vibrational energy     188105.1 (Joules/Mol)
                                   44.95821 (Kcal/Mol)
 VIBRATIONAL TEMPERATURES:    932.34   957.49   989.53  1120.67  1229.48
          (KELVIN)           1324.99  1325.67  1387.13  1524.04  1577.35
                             1611.54  1668.62  1843.71  1917.70  2016.27
                             2114.44  2213.01  4748.84  4753.83  4789.07
                             5201.71

 Zero-point correction=                           0.071645 (Hartree/Particle)
 Thermal correction to Energy=                    0.075285
 Thermal correction to Enthalpy=                  0.076230
 Thermal correction to Gibbs Free Energy=         0.045407
 Sum of electronic and zero-point Energies=           -224.804568
 Sum of electronic and thermal Energies=              -224.800928
 Sum of electronic and thermal Enthalpies=            -224.799984
 Sum of electronic and thermal Free Energies=         -224.830806

                     E (Thermal)             CV                S
                      KCAL/MOL        CAL/MOL-KELVIN    CAL/MOL-KELVIN
 TOTAL                   47.242             12.896             64.871
 ELECTRONIC               0.000              0.000              0.000
 TRANSLATIONAL            0.889              2.981             38.570
 ROTATIONAL               0.889              2.981             24.161
 VIBRATIONAL             45.465              6.935              2.140
                       Q            LOG10(Q)             LN(Q)
 TOTAL BOT       0.130086D-20        -20.885770        -48.091262
 TOTAL V=0       0.117121D+13         12.068634         27.789056
 VIB (BOT)       0.138611D-32        -32.858202        -75.658807
 VIB (V=0)       0.124796D+01          0.096201          0.221511
 ELECTRONIC      0.100000D+01          0.000000          0.000000
 TRANSLATIONAL   0.220588D+08          7.343582         16.909224
 ROTATIONAL      0.425452D+05          4.628850         10.658321
 ***** Axes restored to original set *****
 -------------------------------------------------------------------
 Center     Atomic                   Forces (Hartrees/Bohr)
 Number     Number              X              Y              Z
 -------------------------------------------------------------------
    1          7           0.000598476    0.000000000    0.000056994
    2          1          -0.000033432    0.000000000    0.000008942
    3          6           0.000378017    0.000000000   -0.000392513
    4          1          -0.000094927    0.000000000   -0.000035539
    5          6          -0.000494484    0.000000000   -0.000076588
    6          1           0.000015782    0.000000000    0.000099856
    7          1           0.000125649    0.000000000   -0.000005324
    8          6          -0.000502926    0.000000000   -0.000289762
    9          7           0.000007846    0.000000000    0.000633933
 -------------------------------------------------------------------
 Cartesian Forces:  Max     0.000633933 RMS     0.000249822

 GradGradGradGradGradGradGradGradGradGradGradGradGradGradGradGradGradGrad
 Berny optimization.
 Internal  Forces:  Max     0.000436691 RMS     0.000133603
 Search for a local minimum.
 Step number   1 out of a maximum of  48
 All quantities printed in internal units (Hartrees-Bohrs-Radians)
 Second derivative matrix not updated -- analytic derivatives used.
     Eigenvalues ---    0.00801   0.01297   0.02191   0.02883   0.06466
     Eigenvalues ---    0.06595   0.09924   0.10758   0.11190   0.11663
     Eigenvalues ---    0.22410   0.23624   0.31591   0.37271   0.38423
     Eigenvalues ---    0.38568   0.39209   0.43769   0.46524   0.48166
     Eigenvalues ---    0.553641000.000001000.000001000.000001000.00000
     Eigenvalues --- 1000.000001000.000001000.000001000.000001000.00000
     Eigenvalues --- 1000.000001000.000001000.000001000.000001000.00000
     Eigenvalues --- 1000.000001000.000001000.00000
 Angle between quadratic step and forces=  23.38 degrees.
 Linear search not attempted -- first point.
 Iteration  1 RMS(Cart)=  0.00041075 RMS(Int)=  0.00000015
 Iteration  2 RMS(Cart)=  0.00000015 RMS(Int)=  0.00000003
 Variable       Old X    -DE/DX   Delta X   Delta X   Delta X     New X
                                 (Linear)    (Quad)   (Total)
    R1        2.64247   0.00044   0.00000   0.00169   0.00169   2.64415
    R2        2.50919  -0.00013   0.00000  -0.00016  -0.00016   2.50902
    R3        1.91195  -0.00002   0.00000  -0.00001  -0.00001   1.91194
    R4        2.03286   0.00010   0.00000   0.00025   0.00025   2.03311
    R5        2.59684   0.00013   0.00000   0.00030   0.00030   2.59714
    R6        2.62953  -0.00032   0.00000  -0.00087  -0.00087   2.62866
    R7        2.03352   0.00006   0.00000   0.00010   0.00010   2.03361
    R8        2.03399   0.00012   0.00000   0.00036   0.00036   2.03435
    R9        2.60976  -0.00040   0.00000  -0.00128  -0.00128   2.60848
    A1        1.84235  -0.00015   0.00000  -0.00057  -0.00057   1.84178
    A2        2.30228   0.00001   0.00000  -0.00029  -0.00029   2.30199
    A3        2.13892   0.00005   0.00000   0.00035   0.00035   2.13927
    A4        1.84198  -0.00006   0.00000  -0.00006  -0.00006   1.84192
    A5        1.92694  -0.00013   0.00000  -0.00044  -0.00044   1.92651
    A6        2.11952  -0.00002   0.00000  -0.00075  -0.00074   2.11878
    A7        2.23672   0.00014   0.00000   0.00118   0.00118   2.23790
    A8        2.20033  -0.00007   0.00000  -0.00043  -0.00043   2.19990
    A9        1.94001   0.00010   0.00000   0.00040   0.00040   1.94041
   A10        2.14284  -0.00004   0.00000   0.00003   0.00003   2.14287
   A11        2.19624  -0.00014   0.00000  -0.00056  -0.00056   2.19568
   A12        2.21345  -0.00009   0.00000  -0.00011  -0.00011   2.21334
   A13        1.87349   0.00023   0.00000   0.00067   0.00067   1.87416
    D1        0.00000   0.00000   0.00000   0.00000   0.00000   0.00000
    D2        3.14159   0.00000   0.00000   0.00000   0.00000   3.14159
    D3        3.14159   0.00000   0.00000   0.00000   0.00000   3.14159
    D4        0.00000   0.00000   0.00000   0.00000   0.00000   0.00000
    D5        3.14159   0.00000   0.00000   0.00000   0.00000   3.14159
    D6        0.00000   0.00000   0.00000   0.00000   0.00000   0.00000
    D7        0.00000   0.00000   0.00000   0.00000   0.00000   0.00000
    D8        3.14159   0.00000   0.00000   0.00000   0.00000   3.14159
    D9        0.00000   0.00000   0.00000   0.00000   0.00000   0.00000
   D10        3.14159   0.00000   0.00000   0.00000   0.00000   3.14159
   D11        3.14159   0.00000   0.00000   0.00000   0.00000   3.14159
   D12        0.00000   0.00000   0.00000   0.00000   0.00000   0.00000
   D13        3.14159   0.00000   0.00000   0.00000   0.00000   3.14159
   D14        0.00000   0.00000   0.00000   0.00000   0.00000   0.00000
   D15        0.00000   0.00000   0.00000   0.00000   0.00000   0.00000
   D16        3.14159   0.00000   0.00000   0.00000   0.00000   3.14159
         Item               Value     Threshold  Converged?
 Maximum Force            0.000437     0.000450     YES
 RMS     Force            0.000134     0.000300     YES
 Maximum Displacement     0.001048     0.001800     YES
 RMS     Displacement     0.000411     0.001200     YES
 Predicted change in Energy=-1.155880D-06
 Optimization completed.
    -- Stationary point found.
                         ----------------------------
                         !   Optimized Parameters   !
                         ! (Angstroms and Degrees)  !
 ------------------------                            -------------------------
 ! Name  Definition              Value          Derivative Info.             !
 -----------------------------------------------------------------------------
 ! R1    R(1,5)                  1.3983         -DE/DX =    0.0004           !
 ! R2    R(1,8)                  1.3278         -DE/DX =   -0.0001           !
 ! R3    R(2,9)                  1.0118         -DE/DX =    0.               !
 ! R4    R(3,4)                  1.0757         -DE/DX =    0.0001           !
 ! R5    R(3,5)                  1.3742         -DE/DX =    0.0001           !
 ! R6    R(3,9)                  1.3915         -DE/DX =   -0.0003           !
 ! R7    R(5,6)                  1.0761         -DE/DX =    0.0001           !
 ! R8    R(7,8)                  1.0763         -DE/DX =    0.0001           !
 ! R9    R(8,9)                  1.381          -DE/DX =   -0.0004           !
 ! A1    A(5,1,8)              105.559          -DE/DX =   -0.0001           !
 ! A2    A(4,3,5)              131.9111         -DE/DX =    0.               !
 ! A3    A(4,3,9)              122.5511         -DE/DX =    0.0001           !
 ! A4    A(5,3,9)              105.5378         -DE/DX =   -0.0001           !
 ! A5    A(1,5,3)              110.4056         -DE/DX =   -0.0001           !
 ! A6    A(1,5,6)              121.4397         -DE/DX =    0.               !
 ! A7    A(3,5,6)              128.1547         -DE/DX =    0.0001           !
 ! A8    A(1,8,7)              126.0698         -DE/DX =   -0.0001           !
 ! A9    A(1,8,9)              111.1544         -DE/DX =    0.0001           !
 ! A10   A(7,8,9)              122.7757         -DE/DX =    0.               !
 ! A11   A(2,9,3)              125.8355         -DE/DX =   -0.0001           !
 ! A12   A(2,9,8)              126.8214         -DE/DX =   -0.0001           !
 ! A13   A(3,9,8)              107.3431         -DE/DX =    0.0002           !
 ! D1    D(8,1,5,3)              0.             -DE/DX =    0.               !
 ! D2    D(8,1,5,6)            180.             -DE/DX =    0.               !
 ! D3    D(5,1,8,7)            180.             -DE/DX =    0.               !
 ! D4    D(5,1,8,9)              0.             -DE/DX =    0.               !
 ! D5    D(4,3,5,1)            180.             -DE/DX =    0.               !
 ! D6    D(4,3,5,6)              0.             -DE/DX =    0.               !
 ! D7    D(9,3,5,1)              0.             -DE/DX =    0.               !
 ! D8    D(9,3,5,6)            180.             -DE/DX =    0.               !
 ! D9    D(4,3,9,2)              0.             -DE/DX =    0.               !
 ! D10   D(4,3,9,8)            180.             -DE/DX =    0.               !
 ! D11   D(5,3,9,2)            180.             -DE/DX =    0.               !
 ! D12   D(5,3,9,8)              0.             -DE/DX =    0.               !
 ! D13   D(1,8,9,2)            180.             -DE/DX =    0.               !
 ! D14   D(1,8,9,3)              0.             -DE/DX =    0.               !
 ! D15   D(7,8,9,2)              0.             -DE/DX =    0.               !
 ! D16   D(7,8,9,3)            180.             -DE/DX =    0.               !
 -----------------------------------------------------------------------------
 GradGradGradGradGradGradGradGradGradGradGradGradGradGradGradGradGradGrad

 1\1\GINC-QUANTUM\Freq\RB3PW91\3-21G\C3H4N2\RDJ3\05-May-2000\0\\#N GEOM
 =ALLCHECK GUESS=TCHECK RB3PW91/3-21G FREQ\\1H imidazole C3H4N2 casno=2
 88324\\0,1\N,0.502594369,0.,1.1365898735\H,0.4850814032,0.,-2.06950033
 27\C,-1.0291801053,0.,-0.5478607161\H,-1.9128169254,0.,-1.1613822726\C
 ,-0.858417456,0.,0.8156783276\H,-1.6154285371,0.,1.5804704963\H,2.2105
 575536,0.,-0.162391074\C,1.1428043663,0.,-0.026679249\N,0.2547435847,0
 .,-1.0843080152\\Version=IBM-RS6000-G98RevA.6\State=1-A'\HF=-224.87621
 31\RMSD=3.161e-09\RMSF=2.498e-04\Dipole=-0.1329989,0.,-1.5277803\Dipol
 eDeriv=-0.3550672,-0.0000012,0.0329494,0.0000123,-0.2898646,-0.0000731
 ,0.0255865,-0.000111,-0.4665083,0.211296,0.0000036,-0.0091081,0.000031
 3,0.3904118,-0.0000031,-0.0067475,-0.0000195,0.204175,-0.0457673,-0.00
 00139,-0.2162948,0.0000796,-0.1230353,-0.00011,-0.0251422,0.0001205,0.
 1874993,0.0330657,-0.0000461,-0.0397835,-0.0000544,0.204849,0.0000296,
 -0.0689994,-0.0000387,0.0516361,0.1305946,0.0000252,-0.1443801,-0.0000
 601,-0.1564811,0.0000644,-0.0934465,-0.0000441,0.0719102,0.0157303,0.0
 000142,0.0744338,-0.0000508,0.1692659,0.0000177,0.0701777,-0.0000185,0
 .038471,-0.009056,-0.0000042,0.0181184,0.00002,0.1828958,-0.0000224,0.
 0382865,-0.0000031,0.0806436,0.1267676,-0.0000544,0.1094049,0.0000787,
 -0.019857,0.0000211,-0.0338666,0.0000758,0.4189263,-0.1075628,0.000076
 6,0.1746601,-0.0000566,-0.3581846,0.0000758,0.0941515,0.0000387,-0.586
 7525\Polar=45.1928503,0.0005785,12.9410947,-1.2257676,-0.0001715,41.75
 91084\PG=CS [SG(C3H4N2)]\NImag=0\\0.43804437,0.00000632,0.10688992,-0.
 05968452,-0.00001809,0.51183753,-0.00307368,0.00000159,-0.00780739,0.0
 8280965,0.00000201,0.00611589,0.00000273,-0.00000020,0.01527509,-0.002
 87708,-0.00001045,-0.00259817,-0.09019766,0.00000091,0.44323609,-0.038
 69331,-0.00001715,-0.01772047,0.00523842,0.00000033,-0.00529283,0.7358
 3735,0.00001128,0.01913585,-0.00001323,0.00000132,-0.00458440,-0.00000
 959,-0.00001804,0.12811089,-0.08461550,0.00000725,-0.02732545,0.030646
 68,-0.00000645,-0.00156973,0.17913315,-0.00000534,0.72752933,0.0015442
 3,0.00000884,0.00181533,-0.00005960,0.00000175,0.00046111,-0.26492822,
 0.00001376,-0.14495257,0.27818206,-0.00000107,0.00682142,-0.00000709,0
 .00000036,-0.00127896,-0.00000292,-0.00000404,-0.02599609,0.00000661,-
 0.00000027,0.02071939,-0.00345929,0.00000518,-0.00426788,-0.00085145,0
 .00000121,0.00013434,-0.15559152,0.00000854,-0.16489443,0.15648896,-0.
 00000069,0.15949852,-0.20420433,0.00000038,-0.01101483,-0.00800308,0.0
 0000046,-0.00221598,-0.09924912,0.00000017,-0.01924543,0.00483702,0.00
 000219,-0.02377571,0.63326940,-0.00000782,-0.07377932,0.00001112,-0.00
 000091,0.00328269,0.00000622,0.00001145,-0.07543225,0.00000236,-0.0000
 0747,0.00064854,-0.00000429,-0.00000131,0.14577586,-0.03921606,-0.0000
 0699,-0.09372490,0.00292249,0.00000198,0.00137443,-0.03117711,-0.00000
 387,-0.37441316,0.00340000,-0.00000276,0.00184272,-0.18660304,0.000002
 29,0.78250805,-0.01917734,0.00000163,0.01953912,0.00074478,-0.00000235
 ,0.00001519,0.00825585,-0.00000263,-0.00770843,-0.00008957,0.00000113,
 0.00097670,-0.20096796,0.00000215,0.15516003,0.21536911,0.00000234,-0.
 00471979,-0.00000920,0.00000042,0.00156313,-0.00000443,-0.00000764,0.0
 0121611,0.00000282,0.00000308,-0.00265118,0.00000123,0.00000346,-0.032
 69146,-0.00000323,-0.00000125,0.02496327,-0.00988882,-0.00000232,0.010
 85044,0.00108523,0.00000230,0.00018558,0.02279930,0.00000182,-0.008250
 56,-0.00070569,-0.00000134,-0.00027958,0.15649846,-0.00000151,-0.22343
 657,-0.16420875,0.00000072,0.22462213,-0.00683516,-0.00000670,0.001081
 00,-0.00053962,-0.00000061,-0.00079553,0.00156825,-0.00000881,-0.00247
 905,-0.00022435,0.,0.00028432,0.00148247,0.00000598,0.00148593,-0.0002
 1627,-0.00000181,-0.00009550,0.37850362,0.00000430,-0.00439205,0.00000
 674,-0.00000052,-0.00130753,0.00000144,-0.00000020,0.00301330,-0.00001
 251,0.00000507,0.00152719,0.00000357,-0.00000010,0.00733556,0.00000196
 ,-0.00000460,0.00100183,0.00000444,-0.00000119,0.02248081,0.02948085,0
 .00000019,-0.00200194,0.00045718,0.00000029,0.00012101,-0.00080575,0.0
 0000082,-0.00574827,-0.00089154,-0.00000031,0.00111802,0.00241859,-0.0
 0000055,-0.00360377,0.00124181,-0.00000006,0.00075521,-0.03883298,0.00
 000053,0.06170656,-0.15763602,0.00000053,0.09804082,0.01695122,0.00000
 148,0.01588601,-0.10319100,0.00000409,-0.00186068,-0.00215499,-0.00000
 189,0.00482074,-0.10618630,-0.00000132,0.02447959,-0.00450992,-0.00000
 097,-0.00437923,-0.36156487,0.00000364,0.03802962,0.90558124,-0.000003
 91,-0.07995759,0.00001233,-0.00000087,-0.00511426,0.00000829,0.0000142
 7,0.01866433,-0.00000501,-0.00000832,0.00339185,-0.00000489,-0.0000017
 2,0.01035101,0.00000714,-0.00000013,0.00551083,0.00000080,0.00000379,-
 0.02870256,0.00000006,-0.00000085,0.14683392,0.13927149,0.00001910,-0.
 28212115,-0.01883737,-0.00000211,-0.01127924,-0.04812057,0.00001557,-0
 .01071768,0.00353692,0.00000748,-0.00584415,0.07215499,-0.00001138,-0.
 01536116,-0.00134762,0.00001046,0.00030536,0.03343419,-0.00000445,-0.0
 5722197,-0.09798472,-0.00001575,0.56782892,-0.00996876,0.00000457,-0.0
 2424906,-0.09406810,-0.00000288,0.08501676,-0.24483822,-0.00000114,0.0
 5108181,-0.01710656,0.00000359,0.02110725,-0.02097812,-0.00000075,0.06
 954817,0.00059133,0.00000238,-0.00110501,-0.01217406,-0.00000638,-0.03
 109778,-0.18728938,-0.00000227,-0.08210731,0.58583186,-0.00001346,0.02
 388566,0.00001469,-0.00000118,-0.01395165,0.00001054,0.00002101,-0.064
 12774,0.00001027,-0.00001642,-0.00318217,-0.00000987,-0.00000353,0.014
 50937,0.00000347,0.00000605,0.00580728,-0.00000491,0.00000935,-0.00095
 656,-0.00000096,-0.00000471,-0.07097754,-0.00001893,0.00000290,0.10899
 335,0.03098893,0.00000612,-0.11064848,0.08258230,-0.00000087,-0.429604
 29,0.05677578,0.00000527,-0.13461007,-0.01915252,0.00000103,0.01269245
 ,0.01178295,-0.00000426,-0.07518565,-0.00366806,0.00000169,-0.00475199
 ,0.00591761,-0.00000171,0.00487515,-0.07703215,-0.00000297,-0.18558892
 ,-0.08819484,-0.00000431,0.92282179\\-0.00059848,0.,-0.00005699,0.0000
 3343,0.,-0.00000894,-0.00037802,0.,0.00039251,0.00009493,0.,0.00003554
 ,0.00049448,0.,0.00007659,-0.00001578,0.,-0.00009986,-0.00012565,0.,0.
 00000532,0.00050293,0.,0.00028976,-0.00000785,0.,-0.00063393\\\@

 WHAT, THEN, IS TIME?  IF NO ONE ASKS ME, I KNOW WHAT IT IS.
 IF I WISH TO EXPLAIN WHAT IT IS TO HIM WHO ASKS ME, I DO NOT KNOW.
                                   -- ST. AUGUSTINE (FIFTH CENTURY)
 Job cpu time:  0 days  0 hours  5 minutes  7.7 seconds.
 File lengths (MBytes):  RWF=   10 Int=    0 D2E=    0 Chk=    3 Scr=    1
 Normal termination of Gaussian 98.
