 Gaussian 98, Revision A.7,
 Gaussian 98:  SGI64-G98RevA.7 11-Apr-1999

 ------------------------
 #B3PW91/6-311G* opt freq
 ------------------------

 --------------------------------
 1H imidazole C3H4N2 casno=288324
 --------------------------------
 Symbolic Z-matrix:
 Charge =  0 Multiplicity = 1

 SCF Done:  E(RB+HF-PW91) =  -226.120054289     A.U. after   14 cycles
 SCF Done:  E(RB+HF-PW91) =  -226.171833449     A.U. after   12 cycles
 SCF Done:  E(RB+HF-PW91) =  -226.179392341     A.U. after   12 cycles
 SCF Done:  E(RB+HF-PW91) =  -226.179646023     A.U. after   10 cycles
 SCF Done:  E(RB+HF-PW91) =  -226.179723809     A.U. after    9 cycles
 SCF Done:  E(RB+HF-PW91) =  -226.179728625     A.U. after    8 cycles
 Optimization completed.
    -- Stationary point found.
 Normal termination of Gaussian 98.

 ----------------------------------------------------
 #N Geom=AllCheck Guess=TCheck RB3PW91/6-311G(d) Freq
 ----------------------------------------------------

 1H imidazole C3H4N2 casno=288324
 --------------------------------
 Redundant internal coordinates taken from checkpointfile:
 /tmp/Gau-1666780.chk
 Charge =  0 Multiplicity = 1

                         Standard orientation:
 ---------------------------------------------------------------------
 Center     Atomic     Atomic              Coordinates (Angstroms)
 Number     Number      Type              X           Y           Z
 ---------------------------------------------------------------------
    1          7             0       -0.739489   -0.982606    0.000000
    2          1             0       -0.007574    2.108103    0.000000
    3          6             0        1.116181    0.299567    0.000000
    4          1             0        2.115682    0.705689    0.000000
    5          6             0        0.631942   -0.980851    0.000000
    6          1             0        1.193841   -1.904181    0.000000
    7          1             0       -2.098463    0.659447    0.000000
    8          6             0       -1.085967    0.280508    0.000000
    9          7             0        0.000000    1.101977    0.000000
 ---------------------------------------------------------------------

 SCF Done:  E(RB+HF-PW91) =  -226.179728625     A.U. after    1 cycles

  The electronic state is 1-A'.
 Alpha  occ. eigenvalues --  -14.36400 -14.27882 -10.20968 -10.18739 -10.16814
 Alpha  occ. eigenvalues --   -1.02565  -0.87862  -0.74989  -0.62438  -0.59613
 Alpha  occ. eigenvalues --   -0.56825  -0.44608  -0.44263  -0.43786  -0.40973
 Alpha  occ. eigenvalues --   -0.28837  -0.27135  -0.23552
 Alpha virt. eigenvalues --    0.02387   0.04103   0.06449   0.09204   0.09773
 Alpha virt. eigenvalues --    0.11734   0.19965   0.21726   0.23974   0.29350
 Alpha virt. eigenvalues --    0.32595   0.36673   0.38239   0.40564   0.40659

  Exact polarizability:  49.323  -1.102  47.151   0.002  -0.001  22.297
 Approx polarizability:  76.596   1.552  78.656   0.000   0.000  32.432

                     1                      2                      3
                    A"                     A"                     A"
 Frequencies --   535.8420               650.8727               686.9433
 Red. masses --     1.5923                 2.2154                 2.7461
 Frc consts  --     0.2694                 0.5530                 0.7635
 IR Inten    --   102.4345                14.7255                 4.7344
 Raman Activ --     0.0000                 0.0000                 0.0000

                     4                      5                      6
                    A"                     A"                     A"
 Frequencies --   718.1202               805.4905               858.5349
 Red. masses --     1.2270                 1.3843                 1.3335
 Frc consts  --     0.3728                 0.5292                 0.5791
 IR Inten    --    38.3367                39.9048                 6.4772
 Raman Activ --     0.0000                 0.0000                 0.0000

                     7                      8                      9
                    A'                     A'                     A'
 Frequencies --   908.2083               948.2845              1082.8607
 Red. masses --     5.3823                 4.4268                 1.5503
 Frc consts  --     2.6157                 2.3454                 1.0711
 IR Inten    --     8.4567                 2.3822                33.9232
 Raman Activ --     0.0000                 0.0000                 0.0000

                    10                     11                     12
                    A'                     A'                     A'
 Frequencies --  1106.1943              1155.5791              1184.2214
 Red. masses --     1.4877                 1.3668                 6.5035
 Frc consts  --     1.0726                 1.0754                 5.3736
 IR Inten    --    27.7327                 2.5003                 3.9755
 Raman Activ --     0.0000                 0.0000                 0.0000

                    13                     14                     15
                    A'                     A'                     A'
 Frequencies --  1285.1969              1383.6329              1457.8327
 Red. masses --     1.3749                 3.5743                 3.0769
 Frc consts  --     1.3380                 4.0316                 3.8529
 IR Inten    --     0.4649                 6.9490                13.8040
 Raman Activ --     0.0000                 0.0000                 0.0000

                    16                     17                     18
                    A'                     A'                     A'
 Frequencies --  1518.9412              1574.6066              3246.6510
 Red. masses --     3.3348                 3.2513                 1.0924
 Frc consts  --     4.5332                 4.7495                 6.7844
 IR Inten    --    17.9241                14.2147                 8.8064
 Raman Activ --     0.0000                 0.0000                 0.0000

                    19                     20                     21
                    A'                     A'                     A'
 Frequencies --  3252.6279              3279.9393              3681.1246
 Red. masses --     1.0971                 1.1048                 1.0814
 Frc consts  --     6.8387                 7.0025                 8.6339
 IR Inten    --     2.2733                 3.4532                41.9390
 Raman Activ --     0.0000                 0.0000                 0.0000

 - Thermochemistry -
 -------------------
 Temperature   298.150 Kelvin.  Pressure   1.00000 Atm.
 Atom  1 has atomic number  7 and mass  14.00307

 Molecular mass:    68.03745 amu.
 Principal axes and moments of inertia in atomic units:
                           1         2         3
     EIGENVALUES --   183.77668 191.34568 375.12236
           X            0.46269   0.88652   0.00000
           Y            0.88652  -0.46269   0.00000
           Z            0.00000   0.00000   1.00000
 THIS MOLECULE IS AN ASYMMETRIC TOP.
 ROTATIONAL SYMMETRY NUMBER  1.
 ROTATIONAL TEMPERATURES (KELVIN)      0.47130     0.45265     0.23089
 ROTATIONAL CONSTANTS (GHZ)            9.82029     9.43184     4.81107
 Zero-point vibrational energy     187345.4 (Joules/Mol)
                                   44.77663 (Kcal/Mol)
 WARNING-- EXPLICIT CONSIDERATION OF   1 DEGREES OF FREEDOM AS
           VIBRATIONS MAY CAUSE SIGNIFICANT ERROR
 VIBRATIONAL TEMPERATURES:    770.95   936.46   988.35  1033.21  1158.91
          (KELVIN)           1235.23  1306.70  1364.36  1557.99  1591.56
                             1662.61  1703.82  1849.10  1990.73  2097.48
                             2185.40  2265.49  4671.18  4679.78  4719.07
                             5296.29

 Zero-point correction=                           0.071356 (Hartree/Particle)
 Thermal correction to Energy=                    0.075105
 Thermal correction to Enthalpy=                  0.076049
 Thermal correction to Gibbs Free Energy=         0.045101
 Sum of electronic and zero-point Energies=           -226.108373
 Sum of electronic and thermal Energies=              -226.104623
 Sum of electronic and thermal Enthalpies=            -226.103679
 Sum of electronic and thermal Free Energies=         -226.134628

                     E (Thermal)             CV                S
                      KCAL/MOL        CAL/MOL-KELVIN    CAL/MOL-KELVIN
 TOTAL                   47.129             13.338             65.136
 ELECTRONIC               0.000              0.000              0.000
 TRANSLATIONAL            0.889              2.981             38.570
 ROTATIONAL               0.889              2.981             24.093
 VIBRATIONAL             45.352              7.376              2.473
 VIBRATION  1             0.891              1.171              0.574
                       Q            LOG10(Q)             LN(Q)
 TOTAL BOT       0.179920D-20        -20.744920        -47.766944
 TOTAL V=0       0.119230D+13         12.076386         27.806906
 VIB (BOT)       0.198384D-32        -32.702493        -75.300273
 VIB (BOT)  1    0.296838D+00         -0.527480         -1.214568
 VIB (V=0)       0.131466D+01          0.118813          0.273577
 VIB (V=0)  1    0.108147D+01          0.034016          0.078326
 ELECTRONIC      0.100000D+01          0.000000          0.000000
 TRANSLATIONAL   0.220588D+08          7.343582         16.909224
 ROTATIONAL      0.411141D+05          4.613990         10.624105
 ***** Axes restored to original set *****
 -------------------------------------------------------------------
 Center     Atomic                   Forces (Hartrees/Bohr)
 Number     Number              X              Y              Z
 -------------------------------------------------------------------
    1          7           0.000241641    0.000000000    0.000170530
    2          1          -0.000017654    0.000000000    0.000017246
    3          6           0.000185229    0.000000000   -0.000211009
    4          1           0.000003802    0.000000000    0.000048047
    5          6          -0.000350163    0.000000000    0.000013516
    6          1           0.000061741    0.000000000   -0.000015075
    7          1          -0.000016960    0.000000000    0.000016392
    8          6          -0.000116731    0.000000000   -0.000256917
    9          7           0.000009093    0.000000000    0.000217270
 -------------------------------------------------------------------
 Cartesian Forces:  Max     0.000350163 RMS     0.000125248

 GradGradGradGradGradGradGradGradGradGradGradGradGradGradGradGradGradGrad
 Berny optimization.
 Internal  Forces:  Max     0.000218852 RMS     0.000062220
 Search for a local minimum.
 Step number   1 out of a maximum of  48
 All quantities printed in internal units (Hartrees-Bohrs-Radians)
 Second derivative matrix not updated -- analytic derivatives used.
     Eigenvalues ---    0.00540   0.01062   0.01963   0.02682   0.05997
     Eigenvalues ---    0.06229   0.09840   0.10476   0.10979   0.11734
     Eigenvalues ---    0.23225   0.24653   0.35261   0.37108   0.37415
     Eigenvalues ---    0.37701   0.41251   0.45339   0.47652   0.48544
     Eigenvalues ---    0.588271000.000001000.000001000.000001000.00000
     Eigenvalues --- 1000.000001000.000001000.000001000.000001000.00000
     Eigenvalues --- 1000.000001000.000001000.000001000.000001000.00000
     Eigenvalues --- 1000.000001000.000001000.00000
 Angle between quadratic step and forces=  27.61 degrees.
 Linear search not attempted -- first point.
 Iteration  1 RMS(Cart)=  0.00013904 RMS(Int)=  0.00000003
 Iteration  2 RMS(Cart)=  0.00000003 RMS(Int)=  0.00000000
 Variable       Old X    -DE/DX   Delta X   Delta X   Delta X     New X
                                 (Linear)    (Quad)   (Total)
    R1        2.59163   0.00022   0.00000   0.00071   0.00071   2.59234
    R2        2.47511   0.00008   0.00000   0.00017   0.00017   2.47528
    R3        1.90136  -0.00002   0.00000  -0.00004  -0.00004   1.90132
    R4        2.03875  -0.00003   0.00000  -0.00008  -0.00008   2.03867
    R5        2.58690   0.00005   0.00000   0.00009   0.00009   2.58699
    R6        2.59775  -0.00014   0.00000  -0.00040  -0.00040   2.59735
    R7        2.04254  -0.00005   0.00000  -0.00017  -0.00017   2.04237
    R8        2.04295  -0.00002   0.00000  -0.00004  -0.00004   2.04291
    R9        2.57318  -0.00017   0.00000  -0.00049  -0.00049   2.57269
    A1        1.83724  -0.00010   0.00000  -0.00030  -0.00030   1.83694
    A2        2.31831  -0.00005   0.00000  -0.00050  -0.00050   2.31781
    A3        2.13236   0.00002   0.00000   0.00038   0.00038   2.13273
    A4        1.83252   0.00003   0.00000   0.00012   0.00012   1.83264
    A5        1.93364  -0.00007   0.00000  -0.00021  -0.00021   1.93343
    A6        2.11621   0.00000   0.00000  -0.00032  -0.00032   2.11589
    A7        2.23334   0.00007   0.00000   0.00052   0.00052   2.23386
    A8        2.19664  -0.00004   0.00000  -0.00027  -0.00027   2.19637
    A9        1.95069   0.00006   0.00000   0.00020   0.00020   1.95088
   A10        2.13586  -0.00002   0.00000   0.00008   0.00008   2.13593
   A11        2.20161  -0.00005   0.00000  -0.00021  -0.00021   2.20140
   A12        2.21088  -0.00002   0.00000   0.00002   0.00002   2.21090
   A13        1.87069   0.00008   0.00000   0.00019   0.00019   1.87088
    D1        0.00000   0.00000   0.00000   0.00000   0.00000   0.00000
    D2        3.14159   0.00000   0.00000   0.00000   0.00000   3.14159
    D3        3.14159   0.00000   0.00000   0.00000   0.00000   3.14159
    D4        0.00000   0.00000   0.00000   0.00000   0.00000   0.00000
    D5        3.14159   0.00000   0.00000   0.00000   0.00000   3.14159
    D6        0.00000   0.00000   0.00000   0.00000   0.00000   0.00000
    D7        0.00000   0.00000   0.00000   0.00000   0.00000   0.00000
    D8        3.14159   0.00000   0.00000   0.00000   0.00000   3.14159
    D9        0.00000   0.00000   0.00000   0.00000   0.00000   0.00000
   D10        3.14159   0.00000   0.00000   0.00000   0.00000   3.14159
   D11        3.14159   0.00000   0.00000   0.00000   0.00000   3.14159
   D12        0.00000   0.00000   0.00000   0.00000   0.00000   0.00000
   D13        3.14159   0.00000   0.00000   0.00000   0.00000   3.14159
   D14        0.00000   0.00000   0.00000   0.00000   0.00000   0.00000
   D15        0.00000   0.00000   0.00000   0.00000   0.00000   0.00000
   D16        3.14159   0.00000   0.00000   0.00000   0.00000   3.14159
         Item               Value     Threshold  Converged?
 Maximum Force            0.000219     0.000450     YES
 RMS     Force            0.000062     0.000300     YES
 Maximum Displacement     0.000400     0.001800     YES
 RMS     Displacement     0.000139     0.001200     YES
 Predicted change in Energy=-2.455631D-07
 Optimization completed.
    -- Stationary point found.
                         ----------------------------
                         !   Optimized Parameters   !
                         ! (Angstroms and Degrees)  !
 ------------------------                            -------------------------
 ! Name  Definition              Value          Derivative Info.             !
 -----------------------------------------------------------------------------
 ! R1    R(1,5)                  1.3714         -DE/DX =    0.0002           !
 ! R2    R(1,8)                  1.3098         -DE/DX =    0.0001           !
 ! R3    R(2,9)                  1.0062         -DE/DX =    0.               !
 ! R4    R(3,4)                  1.0789         -DE/DX =    0.               !
 ! R5    R(3,5)                  1.3689         -DE/DX =    0.0001           !
 ! R6    R(3,9)                  1.3747         -DE/DX =   -0.0001           !
 ! R7    R(5,6)                  1.0809         -DE/DX =   -0.0001           !
 ! R8    R(7,8)                  1.0811         -DE/DX =    0.               !
 ! R9    R(8,9)                  1.3617         -DE/DX =   -0.0002           !
 ! A1    A(5,1,8)              105.2659         -DE/DX =   -0.0001           !
 ! A2    A(4,3,5)              132.8291         -DE/DX =   -0.0001           !
 ! A3    A(4,3,9)              122.175          -DE/DX =    0.               !
 ! A4    A(5,3,9)              104.9959         -DE/DX =    0.               !
 ! A5    A(1,5,3)              110.7893         -DE/DX =   -0.0001           !
 ! A6    A(1,5,6)              121.2496         -DE/DX =    0.               !
 ! A7    A(3,5,6)              127.961          -DE/DX =    0.0001           !
 ! A8    A(1,8,7)              125.8582         -DE/DX =    0.               !
 ! A9    A(1,8,9)              111.7661         -DE/DX =    0.0001           !
 ! A10   A(7,8,9)              122.3757         -DE/DX =    0.               !
 ! A11   A(2,9,3)              126.1432         -DE/DX =   -0.0001           !
 ! A12   A(2,9,8)              126.674          -DE/DX =    0.               !
 ! A13   A(3,9,8)              107.1827         -DE/DX =    0.0001           !
 ! D1    D(8,1,5,3)              0.             -DE/DX =    0.               !
 ! D2    D(8,1,5,6)            180.             -DE/DX =    0.               !
 ! D3    D(5,1,8,7)            180.             -DE/DX =    0.               !
 ! D4    D(5,1,8,9)              0.             -DE/DX =    0.               !
 ! D5    D(4,3,5,1)            180.             -DE/DX =    0.               !
 ! D6    D(4,3,5,6)              0.             -DE/DX =    0.               !
 ! D7    D(9,3,5,1)              0.             -DE/DX =    0.               !
 ! D8    D(9,3,5,6)            180.             -DE/DX =    0.               !
 ! D9    D(4,3,9,2)              0.             -DE/DX =    0.               !
 ! D10   D(4,3,9,8)            180.             -DE/DX =    0.               !
 ! D11   D(5,3,9,2)            180.             -DE/DX =    0.               !
 ! D12   D(5,3,9,8)              0.             -DE/DX =    0.               !
 ! D13   D(1,8,9,2)            180.             -DE/DX =    0.               !
 ! D14   D(1,8,9,3)              0.             -DE/DX =    0.               !
 ! D15   D(7,8,9,2)              0.             -DE/DX =    0.               !
 ! D16   D(7,8,9,3)            180.             -DE/DX =    0.               !
 -----------------------------------------------------------------------------
 GradGradGradGradGradGradGradGradGradGradGradGradGradGradGradGradGradGrad

 1\1\ NATIONAL INSTITUTE OF STANDARDS AND TECHNOLOGY-NEVA\Freq\RB3PW91\
 6-311G(d)\C3H4N2\RDJ3\26-May-2000\0\\#N GEOM=ALLCHECK GUESS=TCHECK RB3
 PW91/6-311G(D) FREQ\\1H imidazole C3H4N2 casno=288324\\0,1\N,0.4959881
 217,0.,1.1253238903\H,0.4880018779,0.,-2.0508560173\C,-1.0184858132,0.
 ,-0.5461564087\H,-1.8990714038,0.,-1.1694587269\C,-0.8389234035,0.,0.8
 10942235\H,-1.5965350793,0.,1.5818463001\H,2.1935440998,0.,-0.16364983
 01\C,1.1213192579,0.,-0.0255301268\N,0.2512404866,0.,-1.0729547365\\Ve
 rsion=SGI64-G98RevA.7\State=1-A'\HF=-226.1797286\RMSD=3.056e-09\RMSF=1
 .252e-04\Dipole=-0.0996997,0.,-1.4929803\DipoleDeriv=-0.3844305,-0.000
 0397,-0.0388182,0.000014,-0.3017765,0.000143,-0.021195,-0.0000608,-0.5
 944535,0.1900876,-0.0000417,-0.0020345,-0.0000334,0.3465055,-0.0000305
 ,0.0008695,0.0000633,0.1700092,-0.0053179,-0.0000558,-0.2323604,-0.000
 0112,-0.1384963,0.0000004,-0.0325992,0.0001583,0.1749375,0.0095274,-0.
 0000519,-0.0553532,-0.0000173,0.1929335,0.0000043,-0.0793058,-0.000026
 3,0.0357829,0.1979371,-0.0000397,-0.019916,0.0000181,-0.144072,-0.0000
 547,-0.0827058,0.0000347,0.1424953,-0.0093212,0.0000832,0.0701657,-0.0
 000102,0.1607089,-0.0000081,0.0954306,-0.0000918,0.0243181,-0.0405915,
 -0.0000933,0.0394183,-0.0000755,0.1638255,0.0000584,0.0322721,0.000034
 7,0.0697746,0.126936,0.0000202,0.0708887,0.0000447,-0.0014286,-0.00011
 8,0.0205311,-0.000012,0.5437845,-0.0848247,0.0002186,0.1680087,0.00007
 09,-0.2781997,0.0000051,0.0667027,-0.0001,-0.5666471\Polar=49.6989009,
 0.0020614,22.296727,-0.5050012,-0.0002722,46.7747404\PG=CS [SG(C3H4N2)
 ]\NImag=0\\0.50231352,-0.00000044,0.10550304,-0.05875501,-0.00001193,0
 .58310508,-0.00319545,-0.00000138,-0.00817620,0.08290315,-0.00000034,0
 .00715384,-0.00000064,-0.00000065,0.01188223,-0.00286863,-0.00000137,-
 0.00383208,-0.09714611,0.00000106,0.45804729,-0.03332141,0.00000180,-0
 .01356582,0.00722002,-0.00000093,-0.00235580,0.75003533,-0.00000003,0.
 01717010,0.00000338,0.00000030,-0.00775549,0.00000079,-0.00000038,0.10
 759833,-0.08801167,-0.00000942,-0.02043138,0.02856840,0.00000304,-0.00
 074894,0.15859789,0.00000299,0.74273572,0.00151857,0.00000690,0.001115
 25,0.00002443,-0.00000137,0.00013951,-0.25482189,-0.00000209,-0.139116
 38,0.26892078,-0.00000024,0.00705890,-0.00000110,-0.00000037,-0.001088
 32,0.00000038,-0.00000034,-0.01957994,0.00000095,-0.00000037,0.0178221
 8,-0.00421541,0.00000441,-0.00552232,-0.00092580,-0.00000070,0.0001522
 7,-0.14983547,-0.00000134,-0.16503812,0.15324451,-0.00000017,0.1576761
 3,-0.26510469,0.00001294,-0.04083011,-0.00855133,-0.00000177,-0.001299
 17,-0.10087395,-0.00000304,-0.01923361,0.00501910,-0.00000020,-0.02146
 649,0.66840884,0.00000029,-0.07073413,0.00000556,0.00000083,0.00248043
 ,0.00000072,-0.00000048,-0.06512573,0.00000286,-0.00000283,-0.00184206
 ,-0.00000184,-0.00000459,0.13219323,-0.05018730,-0.00000541,-0.1122368
 9,0.00357285,0.00000137,0.00017715,-0.03548328,0.00000099,-0.39165632,
 0.00132748,0.00000056,0.00302243,-0.15351903,0.00000196,0.79761349,-0.
 01982159,-0.00000891,0.02052290,0.00078084,0.00000214,-0.00001888,0.00
 873387,0.00000237,-0.00554285,-0.00025257,0.00000055,0.00066945,-0.191
 79901,0.00000312,0.14614455,0.20833894,-0.00000006,-0.00541917,-0.0000
 0079,-0.00000025,0.00207293,0.00000007,0.,-0.00053498,-0.00000014,0.00
 000060,-0.00214897,0.00000043,0.00000017,-0.02797720,-0.00000033,-0.00
 000031,0.02262632,-0.00630802,0.00000864,0.01200984,0.00120289,-0.0000
 0211,0.00022437,0.02018250,-0.00000220,-0.00752237,-0.00050737,-0.0000
 0058,-0.00031189,0.14866797,-0.00000273,-0.21704522,-0.15852806,0.0000
 0004,0.21674226,-0.00880459,0.00000933,0.00415305,-0.00064590,-0.00000
 298,-0.00054347,0.00090210,-0.00000167,-0.00314269,-0.00032457,-0.0000
 0082,0.00035303,0.00099658,-0.00000335,0.00255855,-0.00034024,0.000000
 41,-0.00012567,0.36707843,-0.00000066,-0.00546341,-0.00000392,-0.00000
 118,-0.00124879,0.00000067,-0.00000135,0.00265560,0.00000192,-0.000000
 25,0.00185388,0.00000016,0.00000081,0.00703817,0.00000074,0.00000088,0
 .00109973,-0.00000106,-0.00000110,0.02038563,0.02913229,0.00000027,0.0
 0047086,0.00048662,0.00000049,0.00027491,-0.00097666,-0.00000007,-0.00
 576713,-0.00101200,0.00000027,0.00098815,0.00310783,-0.00000047,-0.004
 26736,0.00133400,0.00000022,0.00066164,-0.03837700,0.00000087,0.061484
 29,-0.16851715,-0.00000639,0.12174414,0.01906933,0.00000133,0.01360520
 ,-0.09357530,0.00000114,0.00475711,-0.00323679,0.00000039,0.00404722,-
 0.09127920,0.00000210,0.01519240,-0.00611868,-0.00000018,-0.00337271,-
 0.34634723,0.00000015,0.03568759,0.90043670,0.00000117,-0.07726822,0.0
 0000926,0.00000186,-0.00892422,-0.00000085,0.00000046,0.01707272,0.000
 00369,-0.00000316,0.00272227,-0.00000236,-0.00000768,0.01050626,0.0000
 0139,0.00000350,0.00541656,-0.00000330,-0.00000352,-0.02401836,-0.0000
 0080,0.00000346,0.13402916,0.14449543,0.00001673,-0.34605929,-0.016547
 72,-0.00000132,-0.01069551,-0.04758421,-0.00000380,-0.01085472,0.00377
 463,0.00000055,-0.00533696,0.07762945,-0.00000713,-0.00211276,-0.00167
 877,0.00000075,0.00061555,0.03074671,0.00000342,-0.06110641,-0.0870157
 1,-0.00001097,0.65112376,-0.00506718,-0.00001385,-0.02620820,-0.097605
 09,0.00000457,0.09048736,-0.28429878,0.00000340,0.06312380,-0.01684704
 ,0.00000140,0.01812896,-0.01681640,0.00000490,0.07039385,0.00047848,-0
 .00000037,-0.00121157,-0.01251450,0.00000269,-0.02938267,-0.21043180,0
 .00000391,-0.10381978,0.64310231,0.00000033,0.02199905,0.00000017,0.00
 000083,-0.00457259,-0.00000145,0.00000119,-0.05150061,-0.00000589,0.00
 000256,-0.00479795,0.00000139,0.00000334,0.01346103,-0.00000124,-0.000
 00333,0.00486479,0.00000329,0.00000368,-0.00230245,-0.00000077,-0.0000
 0197,-0.05953617,0.00000176,-0.00000663,0.08238490,0.03671831,-0.00000
 191,-0.10750377,0.08896506,-0.00000119,-0.44359944,0.07102083,-0.00000
 075,-0.14071677,-0.01896560,-0.00000085,0.01437033,0.00694320,0.000001
 07,-0.07349454,-0.00290236,-0.00000026,-0.00537417,0.00437751,-0.00000
 280,0.00726106,-0.10464523,0.00000395,-0.21557369,-0.08151175,0.000002
 73,0.96463096\\-0.00024164,0.,-0.00017053,0.00001765,0.,-0.00001725,-0
 .00018523,0.,0.00021101,-0.00000380,0.,-0.00004805,0.00035016,0.,-0.00
 001352,-0.00006174,0.,0.00001508,0.00001696,0.,-0.00001639,0.00011673,
 0.,0.00025692,-0.00000909,0.,-0.00021727\\\@

 A CHEMICAL PHYSICIST MAKES PRECISE MEASUREMENTS ON IMPURE COMPOUNDS.
 A THEORETICAL PHYSICAL CHEMIST MAKES IMPRECISE
     MEASUREMENTS ON PURE COMPOUNDS.
 AN EXPERIMENTAL PHYSICAL CHEMIST MAKES IMPRECISE
     MEASUREMENTS ON IMPURE COMPOUNDS.
 Job cpu time:  0 days  0 hours  5 minutes 12.0 seconds.
 File lengths (MBytes):  RWF=   21 Int=    0 D2E=    0 Chk=    4 Scr=    1
 Normal termination of Gaussian 98.
