 Gaussian 98, Revision A.4,
 Gaussian 98:  IBM-RS6000-G98RevA.4 11-Sep-1998

 ------------------------
 #B3PW91/6-31G** opt freq
 ------------------------

 --------------------------------
 1H imidazole C3H4N2 casno=288324
 --------------------------------
 Symbolic Z-matrix:
 Charge =  0 Multiplicity = 1

 SCF Done:  E(RB+HF-PW91) =  -226.076762260     A.U. after   14 cycles
 SCF Done:  E(RB+HF-PW91) =  -226.130481548     A.U. after   13 cycles
 SCF Done:  E(RB+HF-PW91) =  -226.138636667     A.U. after   12 cycles
 SCF Done:  E(RB+HF-PW91) =  -226.138890487     A.U. after   10 cycles
 SCF Done:  E(RB+HF-PW91) =  -226.138963624     A.U. after   10 cycles
 SCF Done:  E(RB+HF-PW91) =  -226.138968426     A.U. after    8 cycles
 Optimization completed.
    -- Stationary point found.
 Normal termination of Gaussian 98.

 -----------------------------------------------------
 #N Geom=AllCheck Guess=TCheck RB3PW91/6-31G(d,p) Freq
 -----------------------------------------------------

 1H imidazole C3H4N2 casno=288324
 --------------------------------
 Redundant internal coordinates taken from checkpointfile:
 /wrk/rdj3/Gau-14554.chk
 Charge =  0 Multiplicity = 1

                         Standard orientation:
 ---------------------------------------------------------------------
 Center     Atomic     Atomic              Coordinates (Angstroms)
 Number     Number      Type              X           Y           Z
 ---------------------------------------------------------------------
    1          7             0       -0.740595   -0.985579    0.000000
    2          1             0       -0.010201    2.110166    0.000000
    3          6             0        1.117476    0.301082    0.000000
    4          1             0        2.117602    0.706600    0.000000
    5          6             0        0.632663   -0.981618    0.000000
    6          1             0        1.198546   -1.903181    0.000000
    7          1             0       -2.099676    0.661713    0.000000
    8          6             0       -1.087158    0.281021    0.000000
    9          7             0        0.000000    1.102978    0.000000
 ---------------------------------------------------------------------

 SCF Done:  E(RB+HF-PW91) =  -226.138968426     A.U. after    1 cycles

  The electronic state is 1-A'.
 Alpha  occ. eigenvalues --  -14.38492 -14.29932 -10.22305 -10.20070 -10.18110
 Alpha  occ. eigenvalues --   -1.01816  -0.87207  -0.74365  -0.61715  -0.58972
 Alpha  occ. eigenvalues --   -0.56193  -0.43873  -0.43593  -0.43111  -0.40280
 Alpha  occ. eigenvalues --   -0.28193  -0.26516  -0.22915
 Alpha virt. eigenvalues --    0.03051   0.07271   0.08196   0.14036   0.15811
 Alpha virt. eigenvalues --    0.17836   0.22308   0.24076   0.31025   0.35186
 Alpha virt. eigenvalues --    0.45921   0.51957   0.54763   0.56258   0.59400

  Exact polarizability:  47.964  -1.284  46.092   0.009   0.005  17.878
 Approx polarizability:  75.351   1.571  78.227   0.000   0.000  26.488

                     1                      2                      3
                    A"                     A"                     A"
 Frequencies --   532.3415               648.0431               685.0084
 Red. masses --     1.5665                 2.3263                 2.9196
 Frc consts  --     0.2616                 0.5756                 0.8072
 IR Inten    --    98.5474                15.2773                 2.3672
 Raman Activ --     0.0000                 0.0000                 0.0000

                     4                      5                      6
                    A"                     A"                     A"
 Frequencies --   727.5224               809.1159               866.2078
 Red. masses --     1.2234                 1.3427                 1.3188
 Frc consts  --     0.3815                 0.5179                 0.5830
 IR Inten    --    27.1046                32.5782                 5.0107
 Raman Activ --     0.0000                 0.0000                 0.0000

                     7                      8                      9
                    A'                     A'                     A'
 Frequencies --   901.9035               942.3299              1087.8986
 Red. masses --     5.3299                 4.6091                 1.5214
 Frc consts  --     2.5544                 2.4114                 1.0609
 IR Inten    --     8.0017                 1.8467                30.5413
 Raman Activ --     0.0000                 0.0000                 0.0000

                    10                     11                     12
                    A'                     A'                     A'
 Frequencies --  1110.5416              1158.8392              1190.3661
 Red. masses --     1.4598                 1.3425                 6.3869
 Frc consts  --     1.0608                 1.0622                 5.3322
 IR Inten    --    24.4918                 2.8282                 4.2017
 Raman Activ --     0.0000                 0.0000                 0.0000

                    13                     14                     15
                    A'                     A'                     A'
 Frequencies --  1289.7779              1395.3022              1462.3441
 Red. masses --     1.3527                 3.5520                 3.2652
 Frc consts  --     1.3258                 4.0744                 4.1140
 IR Inten    --     0.6630                 8.5889                14.1646
 Raman Activ --     0.0000                 0.0000                 0.0000

                    16                     17                     18
                    A'                     A'                     A'
 Frequencies --  1528.3183              1580.4367              3267.3952
 Red. masses --     3.4426                 3.4806                 1.0923
 Frc consts  --     4.7377                 5.1222                 6.8708
 IR Inten    --    18.8524                13.2314                 7.0327
 Raman Activ --     0.0000                 0.0000                 0.0000

                    19                     20                     21
                    A'                     A'                     A'
 Frequencies --  3271.9328              3302.6777              3695.2961
 Red. masses --     1.0968                 1.1040                 1.0817
 Frc consts  --     6.9179                 7.0950                 8.7025
 IR Inten    --     1.1236                 1.5611                54.8316
 Raman Activ --     0.0000                 0.0000                 0.0000

 - Thermochemistry -
 -------------------
 Temperature   298.150 Kelvin.  Pressure   1.00000 Atm.
 Atom  1 has atomic number  7 and mass  14.00307

 Molecular mass:    68.03745 amu.
 Principal axes and moments of inertia in atomic units:
                           1         2         3
     EIGENVALUES --   184.15508 191.96182 376.11689
           X            0.46469   0.88547   0.00000
           Y            0.88547  -0.46469   0.00000
           Z            0.00000   0.00000   1.00000
 THIS MOLECULE IS AN ASYMMETRIC TOP.
 ROTATIONAL SYMMETRY NUMBER  1.
 ROTATIONAL TEMPERATURES (KELVIN)      0.47033     0.45120     0.23028
 ROTATIONAL CONSTANTS (GHZ)            9.80012     9.40156     4.79835
 Zero-point vibrational energy     188134.3 (Joules/Mol)
                                   44.96518 (Kcal/Mol)
 WARNING-- EXPLICIT CONSIDERATION OF   1 DEGREES OF FREEDOM AS
           VIBRATIONS MAY CAUSE SIGNIFICANT ERROR
 VIBRATIONAL TEMPERATURES:    765.92   932.38   985.57  1046.74  1164.13
          (KELVIN)           1246.27  1297.63  1355.79  1565.23  1597.81
                             1667.30  1712.66  1855.69  2007.52  2103.97
                             2198.90  2273.88  4701.03  4707.55  4751.79
                             5316.68

 Zero-point correction=                           0.071657 (Hartree/Particle)
 Thermal correction to Energy=                    0.075404
 Thermal correction to Enthalpy=                  0.076348
 Thermal correction to Gibbs Free Energy=         0.045398
 Sum of electronic and zero-point Energies=           -226.067312
 Sum of electronic and thermal Energies=              -226.063565
 Sum of electronic and thermal Enthalpies=            -226.062621
 Sum of electronic and thermal Free Energies=         -226.093571

                     E (Thermal)             CV                S
                      KCAL/MOL        CAL/MOL-KELVIN    CAL/MOL-KELVIN
 TOTAL                   47.316             13.310             65.140
 ELECTRONIC               0.000              0.000              0.000
 TRANSLATIONAL            0.889              2.981             38.570
 ROTATIONAL               0.889              2.981             24.101
 VIBRATIONAL             45.539              7.349              2.468
 VIBRATION  1             0.887              1.178              0.582
                       Q            LOG10(Q)             LN(Q)
 TOTAL BOT       0.131414D-20        -20.881359        -48.081106
 TOTAL V=0       0.119717D+13         12.078157         27.810983
 VIB (BOT)       0.144327D-32        -32.840651        -75.618394
 VIB (BOT)  1    0.299772D+00         -0.523209         -1.204733
 VIB (V=0)       0.131481D+01          0.118864          0.273695
 VIB (V=0)  1    0.108298D+01          0.034620          0.079715
 ELECTRONIC      0.100000D+01          0.000000          0.000000
 TRANSLATIONAL   0.220588D+08          7.343582         16.909224
 ROTATIONAL      0.412772D+05          4.615710         10.628065
 ***** Axes restored to original set *****
 -------------------------------------------------------------------
 Center     Atomic                   Forces (Hartrees/Bohr)
 Number     Number              X              Y              Z
 -------------------------------------------------------------------
    1          7           0.000208041    0.000000000    0.000145212
    2          1          -0.000021000    0.000000000    0.000010641
    3          6           0.000175263    0.000000000   -0.000175183
    4          1          -0.000000932    0.000000000    0.000032508
    5          6          -0.000310139    0.000000000    0.000014396
    6          1           0.000051244    0.000000000   -0.000004201
    7          1          -0.000004058    0.000000000    0.000009419
    8          6          -0.000128020    0.000000000   -0.000235522
    9          7           0.000029601    0.000000000    0.000202730
 -------------------------------------------------------------------
 Cartesian Forces:  Max     0.000310139 RMS     0.000112277

 GradGradGradGradGradGradGradGradGradGradGradGradGradGradGradGradGradGrad
 Berny optimization.
 Internal  Forces:  Max     0.000189093 RMS     0.000056126
 Search for a local minimum.
 Step number   1 out of a maximum of  48
 All quantities printed in internal units (Hartrees-Bohrs-Radians)
 Second derivative matrix not updated -- analytic derivatives used.
     Eigenvalues ---    0.00537   0.01086   0.01991   0.02748   0.05962
     Eigenvalues ---    0.06194   0.09790   0.10432   0.11035   0.11865
     Eigenvalues ---    0.23233   0.24746   0.35699   0.37548   0.37914
     Eigenvalues ---    0.38268   0.41805   0.45853   0.48293   0.48951
     Eigenvalues ---    0.591521000.000001000.000001000.000001000.00000
     Eigenvalues --- 1000.000001000.000001000.000001000.000001000.00000
     Eigenvalues --- 1000.000001000.000001000.000001000.000001000.00000
     Eigenvalues --- 1000.000001000.000001000.00000
 Angle between quadratic step and forces=  27.36 degrees.
 Linear search not attempted -- first point.
 Iteration  1 RMS(Cart)=  0.00012864 RMS(Int)=  0.00000002
 Iteration  2 RMS(Cart)=  0.00000003 RMS(Int)=  0.00000000
 Variable       Old X    -DE/DX   Delta X   Delta X   Delta X     New X
                                 (Linear)    (Quad)   (Total)
    R1        2.59509   0.00019   0.00000   0.00061   0.00061   2.59571
    R2        2.48151   0.00007   0.00000   0.00016   0.00016   2.48166
    R3        1.90341  -0.00002   0.00000  -0.00003  -0.00003   1.90338
    R4        2.03941  -0.00002   0.00000  -0.00004  -0.00004   2.03937
    R5        2.59131   0.00005   0.00000   0.00009   0.00009   2.59140
    R6        2.59917  -0.00012   0.00000  -0.00034  -0.00034   2.59883
    R7        2.04362  -0.00004   0.00000  -0.00013  -0.00013   2.04349
    R8        2.04416  -0.00001   0.00000   0.00000   0.00000   2.04415
    R9        2.57553  -0.00017   0.00000  -0.00047  -0.00047   2.57506
    A1        1.83499  -0.00008   0.00000  -0.00024  -0.00024   1.83475
    A2        2.31737  -0.00004   0.00000  -0.00038  -0.00038   2.31699
    A3        2.13394   0.00001   0.00000   0.00026   0.00026   2.13421
    A4        1.83187   0.00003   0.00000   0.00012   0.00012   1.83199
    A5        1.93505  -0.00007   0.00000  -0.00021  -0.00021   1.93484
    A6        2.11860   0.00000   0.00000  -0.00029  -0.00029   2.11830
    A7        2.22954   0.00007   0.00000   0.00050   0.00050   2.23005
    A8        2.19751  -0.00003   0.00000  -0.00022  -0.00022   2.19729
    A9        1.95109   0.00005   0.00000   0.00017   0.00017   1.95126
   A10        2.13459  -0.00002   0.00000   0.00005   0.00005   2.13464
   A11        2.20336  -0.00005   0.00000  -0.00025  -0.00025   2.20311
   A12        2.20804  -0.00001   0.00000   0.00009   0.00009   2.20813
   A13        1.87179   0.00006   0.00000   0.00016   0.00016   1.87195
    D1        0.00000   0.00000   0.00000   0.00000   0.00000   0.00000
    D2        3.14159   0.00000   0.00000   0.00000   0.00000   3.14159
    D3        3.14159   0.00000   0.00000   0.00000   0.00000   3.14159
    D4        0.00000   0.00000   0.00000   0.00000   0.00000   0.00000
    D5        3.14159   0.00000   0.00000   0.00000   0.00000   3.14159
    D6        0.00000   0.00000   0.00000   0.00000   0.00000   0.00000
    D7        0.00000   0.00000   0.00000   0.00000   0.00000   0.00000
    D8        3.14159   0.00000   0.00000   0.00000   0.00000   3.14159
    D9        0.00000   0.00000   0.00000   0.00000   0.00000   0.00000
   D10        3.14159   0.00000   0.00000   0.00000   0.00000   3.14159
   D11        3.14159   0.00000   0.00000   0.00000   0.00000   3.14159
   D12        0.00000   0.00000   0.00000   0.00000   0.00000   0.00000
   D13        3.14159   0.00000   0.00000   0.00000   0.00000   3.14159
   D14        0.00000   0.00000   0.00000   0.00000   0.00000   0.00000
   D15        0.00000   0.00000   0.00000   0.00000   0.00000   0.00000
   D16        3.14159   0.00000   0.00000   0.00000   0.00000   3.14159
         Item               Value     Threshold  Converged?
 Maximum Force            0.000189     0.000450     YES
 RMS     Force            0.000056     0.000300     YES
 Maximum Displacement     0.000375     0.001800     YES
 RMS     Displacement     0.000129     0.001200     YES
 Predicted change in Energy=-1.952876D-07
 Optimization completed.
    -- Stationary point found.
                         ----------------------------
                         !   Optimized Parameters   !
                         ! (Angstroms and Degrees)  !
 ------------------------                            -------------------------
 ! Name  Definition              Value          Derivative Info.             !
 -----------------------------------------------------------------------------
 ! R1    R(1,5)                  1.3733         -DE/DX =    0.0002           !
 ! R2    R(1,8)                  1.3132         -DE/DX =    0.0001           !
 ! R3    R(2,9)                  1.0072         -DE/DX =    0.               !
 ! R4    R(3,4)                  1.0792         -DE/DX =    0.               !
 ! R5    R(3,5)                  1.3713         -DE/DX =    0.0001           !
 ! R6    R(3,9)                  1.3754         -DE/DX =   -0.0001           !
 ! R7    R(5,6)                  1.0814         -DE/DX =    0.               !
 ! R8    R(7,8)                  1.0817         -DE/DX =    0.               !
 ! R9    R(8,9)                  1.3629         -DE/DX =   -0.0002           !
 ! A1    A(5,1,8)              105.1373         -DE/DX =   -0.0001           !
 ! A2    A(4,3,5)              132.7757         -DE/DX =    0.               !
 ! A3    A(4,3,9)              122.266          -DE/DX =    0.               !
 ! A4    A(5,3,9)              104.9583         -DE/DX =    0.               !
 ! A5    A(1,5,3)              110.87           -DE/DX =   -0.0001           !
 ! A6    A(1,5,6)              121.3866         -DE/DX =    0.               !
 ! A7    A(3,5,6)              127.7434         -DE/DX =    0.0001           !
 ! A8    A(1,8,7)              125.9081         -DE/DX =    0.               !
 ! A9    A(1,8,9)              111.7889         -DE/DX =    0.0001           !
 ! A10   A(7,8,9)              122.303          -DE/DX =    0.               !
 ! A11   A(2,9,3)              126.2433         -DE/DX =   -0.0001           !
 ! A12   A(2,9,8)              126.5112         -DE/DX =    0.               !
 ! A13   A(3,9,8)              107.2455         -DE/DX =    0.0001           !
 ! D1    D(8,1,5,3)              0.             -DE/DX =    0.               !
 ! D2    D(8,1,5,6)            180.             -DE/DX =    0.               !
 ! D3    D(5,1,8,7)            180.             -DE/DX =    0.               !
 ! D4    D(5,1,8,9)              0.             -DE/DX =    0.               !
 ! D5    D(4,3,5,1)            180.             -DE/DX =    0.               !
 ! D6    D(4,3,5,6)              0.             -DE/DX =    0.               !
 ! D7    D(9,3,5,1)              0.             -DE/DX =    0.               !
 ! D8    D(9,3,5,6)            180.             -DE/DX =    0.               !
 ! D9    D(4,3,9,2)              0.             -DE/DX =    0.               !
 ! D10   D(4,3,9,8)            180.             -DE/DX =    0.               !
 ! D11   D(5,3,9,2)            180.             -DE/DX =    0.               !
 ! D12   D(5,3,9,8)              0.             -DE/DX =    0.               !
 ! D13   D(1,8,9,2)            180.             -DE/DX =    0.               !
 ! D14   D(1,8,9,3)              0.             -DE/DX =    0.               !
 ! D15   D(7,8,9,2)              0.             -DE/DX =    0.               !
 ! D16   D(7,8,9,3)            180.             -DE/DX =    0.               !
 -----------------------------------------------------------------------------
 GradGradGradGradGradGradGradGradGradGradGradGradGradGradGradGradGradGrad

 1\1\GINC-AURUM\Freq\RB3PW91\6-31G(d,p)\C3H4N2\RDJ3\05-Jun-2000\0\\#N G
 EOM=ALLCHECK GUESS=TCHECK RB3PW91/6-31G(D,P) FREQ\\1H imidazole C3H4N2
  casno=288324\\0,1\N,0.4970158247,0.,1.1281942331\H,0.4898867881,0.,-2
 .0525388966\C,-1.0197071839,0.,-0.5473583961\H,-1.9013851774,0.,-1.169
 7247382\C,-0.8393482702,0.,0.8119915714\H,-1.6000073378,0.,1.580692230
 8\H,2.1951493598,0.,-0.1668029171\C,1.1225812361,0.,-0.0263835549\N,0.
 2508701289,0.,-1.0740690047\\Version=IBM-RS6000-G98RevA.4\State=1-A'\H
 F=-226.1389684\RMSD=7.806e-09\RMSF=1.123e-04\Dipole=-0.1103939,0.,-1.4
 713471\DipoleDeriv=-0.389168,-0.0002449,-0.0180633,-0.0007203,-0.30351
 51,-0.0003271,-0.0150764,0.0002212,-0.5812985,0.1896726,-0.0000757,-0.
 0055917,-0.0000466,0.3367504,-0.0000393,-0.0054001,0.0002916,0.1983018
 ,-0.0022867,0.0002759,-0.2326283,0.0000231,-0.1251517,-0.0000086,-0.02
 59503,0.0003327,0.1775644,0.0208217,-0.0001394,-0.0417456,-0.0001287,0
 .1746371,-0.0000692,-0.0677158,-0.0001047,0.0361646,0.19107,-0.0002466
 ,-0.0469816,0.0003761,-0.1071478,0.0001511,-0.0767383,-0.0000282,0.130
 8226,-0.0078278,0.0002531,0.0675018,-0.0000244,0.1376863,0.0000252,0.0
 78553,-0.0002212,0.0258927,-0.0278596,0.0000447,0.0322167,-0.0001114,0
 .1468379,-0.000079,0.0360669,-0.0000017,0.064229,0.13294,-0.0000314,0.
 0902309,0.000358,0.0057805,0.0001398,0.0064347,-0.0003167,0.5383295,-0
 .1073618,0.0001644,0.1550611,0.000274,-0.2658775,0.0002071,0.0698263,-
 0.0001728,-0.5900056\Polar=48.4362223,0.0075249,17.8778815,-0.736508,0
 .0069765,45.6199294\PG=CS [SG(C3H4N2)]\NImag=0\\0.51223902,-0.00000905
 ,0.10430279,-0.06341248,0.00002693,0.58497817,-0.00304760,-0.00000473,
 -0.00837073,0.08222533,-0.00000112,0.00703653,0.00000157,-0.00000027,0
 .01166970,-0.00307879,0.00001612,-0.00368985,-0.09912308,0.00000079,0.
 46093457,-0.03321718,0.00001847,-0.01234403,0.00720304,0.00000047,-0.0
 0348588,0.75846705,-0.00000012,0.01666572,-0.00000132,0.00000018,-0.00
 751559,-0.00000050,0.00000040,0.10790619,-0.08744321,0.00001708,-0.019
 71972,0.02796719,0.00000137,-0.00095214,0.15698647,-0.00000018,0.75165
 315,0.00157756,-0.00000344,0.00110485,0.00018174,-0.00000033,0.0000001
 7,-0.25874440,0.00000049,-0.14128560,0.27329332,-0.00000065,0.00717406
 ,0.00000478,-0.00000052,-0.00117385,0.00000104,0.00000154,-0.02028562,
 0.00000215,0.00000058,0.01830172,-0.00417738,-0.00000187,-0.00562511,-
 0.00089573,-0.00000028,0.00016049,-0.15178619,0.00000025,-0.16593889,0
 .15546612,0.00000051,0.15897509,-0.27284152,-0.00002360,-0.04109035,-0
 .00863061,-0.00000147,-0.00119187,-0.09967734,0.00000103,-0.02028958,0
 .00486750,-0.00000398,-0.02186975,0.67680050,0.00000331,-0.06999873,-0
 .00001453,0.00000209,0.00246184,-0.00000659,-0.00000839,-0.06427676,-0
 .00000741,0.00000019,-0.00190444,-0.00000023,0.00001218,0.13242745,-0.
 05258362,-0.00001125,-0.11125794,0.00362407,-0.00000012,0.00040395,-0.
 03751636,0.00000041,-0.40042669,0.00132342,-0.00000328,0.00278572,-0.1
 4998009,0.00000711,0.80670001,-0.02020455,0.00001471,0.02070939,0.0008
 5035,0.00000108,0.00000903,0.00852729,-0.00000021,-0.00554415,-0.00021
 708,0.00000147,0.00063184,-0.19540301,-0.00000653,0.14830191,0.2122198
 3,-0.00000132,-0.00540078,0.00000210,-0.00000053,0.00201972,0.00000257
 ,0.00000129,-0.00058805,0.00000149,-0.00000074,-0.00210395,-0.00000044
 ,-0.00000162,-0.02875267,0.00000011,0.00000183,0.02314738,-0.00627726,
 -0.00001160,0.01220782,0.00124347,-0.00000092,0.00021948,0.02066828,0.
 00000011,-0.00764126,-0.00043561,-0.00000097,-0.00017090,0.15042675,0.
 00000490,-0.21847302,-0.16061937,-0.00000150,0.21814947,-0.00888273,0.
 00000450,0.00435539,-0.00055527,0.00000054,-0.00036349,0.00105592,-0.0
 0000074,-0.00317174,-0.00034104,0.00000107,0.00036303,0.00107717,-0.00
 000236,0.00244792,-0.00030402,0.00000066,-0.00020564,0.37140423,-0.000
 00194,-0.00556497,0.00000367,-0.00000075,-0.00128407,0.00000252,0.0000
 0306,0.00262415,0.00000324,-0.00000056,0.00193821,-0.00000039,-0.00000
 347,0.00700306,-0.00000174,0.00000245,0.00119681,-0.00000200,0.0000005
 6,0.02060627,0.02934398,0.00000196,0.00063483,0.00046407,-0.00000016,0
 .00031062,-0.00108629,0.00000023,-0.00582019,-0.00102665,0.00000004,0.
 00103610,0.00309441,-0.00000114,-0.00444706,0.00138117,0.00000007,0.00
 069293,-0.03940075,0.00000019,0.06223590,-0.16943669,0.00000255,0.1248
 2781,0.01808421,0.00000020,0.01442417,-0.09202511,0.00000026,0.0056041
 0,-0.00305427,0.00000043,0.00418474,-0.08946831,-0.00000196,0.01448242
 ,-0.00601805,-0.00000042,-0.00354076,-0.35015456,0.00000018,0.03682923
 ,0.90417654,0.00000785,-0.07613378,-0.00001462,0.00000330,-0.00876786,
 -0.00001294,-0.00001121,0.01690821,-0.00001170,0.00000437,0.00272932,0
 .00000283,0.00001313,0.00999185,0.00000332,-0.00001068,0.00542472,0.00
 000880,-0.00000311,-0.02412384,-0.00000070,0.00000022,0.13303450,0.150
 26354,-0.00002950,-0.35195026,-0.01627426,-0.00000123,-0.01022276,-0.0
 4700117,0.00000074,-0.01151181,0.00389140,-0.00000441,-0.00537523,0.07
 504850,0.00001502,-0.00270783,-0.00183492,-0.00000228,0.00041775,0.031
 65142,-0.00000441,-0.06185273,-0.08590447,0.00001678,0.66324508,-0.006
 18630,0.00000059,-0.02577984,-0.09631119,0.00000091,0.09280975,-0.2915
 8926,-0.00000128,0.06717653,-0.01756332,0.00000006,0.01808332,-0.01672
 439,0.00000146,0.06990034,0.00054925,0.00000085,-0.00125987,-0.0132996
 9,0.00000047,-0.02959917,-0.21210376,-0.00000386,-0.10984003,0.6532286
 7,0.00000302,0.02191916,-0.00000857,0.00000122,-0.00444642,-0.00000299
 ,-0.00000563,-0.05143824,-0.00000604,-0.00000055,-0.00467546,-0.000000
 38,0.00000781,0.01304842,0.00000544,-0.00000413,0.00505681,0.00000319,
 -0.00000111,-0.00239562,-0.00000049,-0.00000146,-0.05906311,0.00000929
 ,0.00000083,0.08199446,0.03736522,-0.00000786,-0.10557793,0.09136500,-
 0.00000102,-0.44716434,0.07556517,0.00000027,-0.13964247,-0.01903809,0
 .00000014,0.01415275,0.00585200,0.00000286,-0.07257713,-0.00303489,-0.
 00000212,-0.00540227,0.00432385,-0.00000109,0.00720960,-0.11090723,0.0
 0000824,-0.22004222,-0.08149102,0.00000056,0.96904400\\-0.00020804,0.,
 -0.00014521,0.00002100,0.,-0.00001064,-0.00017526,0.,0.00017518,0.0000
 0093,0.,-0.00003251,0.00031014,0.,-0.00001440,-0.00005124,0.,0.0000042
 0,0.00000406,0.,-0.00000942,0.00012802,0.,0.00023552,-0.00002960,0.,-0
 .00020273\\\@

 "ANNA, YOU MUSN'T SPEAK OF OXIDIZED MURIATIC ACID
 ANYMORE, FROM NOW ON YOU MUST SAY CHLORINE."
   -- JENS JACOB BERZELIUS, IN 1820, TO HIS COOK, WHO HAD
 COMPLAINED OF THE SMELL OF THE FLASK SHE WAS CLEANING.
 Job cpu time:  0 days  0 hours 16 minutes  0.8 seconds.
 File lengths (MBytes):  RWF=   15 Int=    0 D2E=    0 Chk=    3 Scr=    1
 Normal termination of Gaussian 98.
