 Gaussian 98, Revision A.6,
 Gaussian 98:  x86-Linux-G98RevA.6 19-Oct-1998

 -----------------------------
 #B3PW91/6-31G(2df,p) opt freq
 -----------------------------

 ----------------------------------------
 1himidaz casno=288324 method=16 basis=19
 ----------------------------------------
 Symbolic Z-matrix:
 Charge =  0 Multiplicity = 1

 SCF Done:  E(RB+HF-PW91) =  -226.147507244     A.U. after   14 cycles
 SCF Done:  E(RB+HF-PW91) =  -226.148787689     A.U. after   10 cycles
 SCF Done:  E(RB+HF-PW91) =  -226.148817315     A.U. after    9 cycles
 SCF Done:  E(RB+HF-PW91) =  -226.148822116     A.U. after    8 cycles
 Optimization completed.
    -- Stationary point found.
 Normal termination of Gaussian 98.

 -------------------------------------------------------
 #N Geom=AllCheck Guess=TCheck RB3PW91/6-31G(2df,p) Freq
 -------------------------------------------------------

 1himidaz casno=288324 method=16 basis=19
 ----------------------------------------
 Redundant internal coordinates taken from checkpointfile:
 /scr/rdj3/Gau-19637.chk
 Charge =  0 Multiplicity = 1

                         Standard orientation:
 ---------------------------------------------------------------------
 Center     Atomic     Atomic              Coordinates (Angstroms)
 Number     Number      Type              X           Y           Z
 ---------------------------------------------------------------------
    1          7             0       -0.739923   -0.983553    0.000000
    2          1             0       -0.008850    2.105961    0.000000
    3          6             0        1.115082    0.299837    0.000000
    4          1             0        2.112520    0.708727    0.000000
    5          6             0        0.632673   -0.980990    0.000000
    6          1             0        1.196453   -1.902438    0.000000
    7          1             0       -2.095746    0.664691    0.000000
    8          6             0       -1.085241    0.281618    0.000000
    9          7             0        0.000000    1.100734    0.000000
 ---------------------------------------------------------------------

 SCF Done:  E(RB+HF-PW91) =  -226.148822116     A.U. after    1 cycles

  The electronic state is 1-A'.
 Alpha  occ. eigenvalues --  -14.37678 -14.29354 -10.21756 -10.19498 -10.17701
 Alpha  occ. eigenvalues --   -1.01653  -0.86988  -0.74217  -0.61502  -0.58850
 Alpha  occ. eigenvalues --   -0.56038  -0.43686  -0.43367  -0.43174  -0.40110
 Alpha  occ. eigenvalues --   -0.28152  -0.26456  -0.22853
 Alpha virt. eigenvalues --    0.03212   0.07254   0.08425   0.14164   0.15829
 Alpha virt. eigenvalues --    0.17832   0.22141   0.24016   0.28446   0.32999
 Alpha virt. eigenvalues --    0.40146   0.45094   0.48436   0.49045   0.53267

  Exact polarizability:  50.044  -1.383  47.378   0.018  -0.009  21.166
 Approx polarizability:  78.373   1.036  80.351   0.000   0.000  32.802

                     1                      2                      3
                    A"                     A"                     A"
 Frequencies --   539.3081               650.3883               687.5312
 Red. masses --     1.5719                 2.3013                 2.9071
 Frc consts  --     0.2694                 0.5735                 0.8096
 IR Inten    --    84.3277                14.1002                 2.3738
 Raman Activ --     0.0000                 0.0000                 0.0000

                     4                      5                      6
                    A"                     A"                     A"
 Frequencies --   733.6580               817.3247               866.9795
 Red. masses --     1.2246                 1.3464                 1.3208
 Frc consts  --     0.3884                 0.5299                 0.5849
 IR Inten    --    24.2102                28.0709                 4.9864
 Raman Activ --     0.0000                 0.0000                 0.0000

                     7                      8                      9
                    A'                     A'                     A'
 Frequencies --   902.4658               943.3322              1085.0957
 Red. masses --     5.3046                 4.4789                 1.5340
 Frc consts  --     2.5455                 2.3483                 1.0642
 IR Inten    --     9.3896                 1.4263                29.7007
 Raman Activ --     0.0000                 0.0000                 0.0000

                    10                     11                     12
                    A'                     A'                     A'
 Frequencies --  1107.6765              1156.1750              1184.0548
 Red. masses --     1.4548                 1.3342                 6.6220
 Frc consts  --     1.0517                 1.0508                 5.4699
 IR Inten    --    20.2394                 2.2969                 4.2550
 Raman Activ --     0.0000                 0.0000                 0.0000

                    13                     14                     15
                    A'                     A'                     A'
 Frequencies --  1283.9750              1382.1872              1449.9749
 Red. masses --     1.3496                 3.6450                 3.3210
 Frc consts  --     1.3108                 4.1028                 4.1137
 IR Inten    --     0.5034                 7.6568                13.0255
 Raman Activ --     0.0000                 0.0000                 0.0000

                    16                     17                     18
                    A'                     A'                     A'
 Frequencies --  1519.0468              1568.6365              3258.2494
 Red. masses --     3.3895                 3.4577                 1.0915
 Frc consts  --     4.6081                 5.0128                 6.8272
 IR Inten    --    15.5634                14.2239                 6.9095
 Raman Activ --     0.0000                 0.0000                 0.0000

                    19                     20                     21
                    A'                     A'                     A'
 Frequencies --  3261.7578              3292.7124              3692.4659
 Red. masses --     1.0967                 1.1044                 1.0812
 Frc consts  --     6.8742                 7.0548                 8.6856
 IR Inten    --     0.6511                 2.3411                56.4149
 Raman Activ --     0.0000                 0.0000                 0.0000

 - Thermochemistry -
 -------------------
 Temperature   298.150 Kelvin.  Pressure   1.00000 Atm.
 Atom  1 has atomic number  7 and mass  14.00307

 Molecular mass:    68.03745 amu.
 Principal axes and moments of inertia in atomic units:
                           1         2         3
     EIGENVALUES --   183.69029 191.24888 374.93917
           X            0.45126   0.89239   0.00000
           Y            0.89239  -0.45126   0.00000
           Z            0.00000   0.00000   1.00000
 THIS MOLECULE IS AN ASYMMETRIC TOP.
 ROTATIONAL SYMMETRY NUMBER  1.
 ROTATIONAL TEMPERATURES (KELVIN)      0.47152     0.45288     0.23101
 ROTATIONAL CONSTANTS (GHZ)            9.82491     9.43661     4.81342
 Zero-point vibrational energy     187712.0 (Joules/Mol)
                                   44.86425 (Kcal/Mol)
 WARNING-- EXPLICIT CONSIDERATION OF   1 DEGREES OF FREEDOM AS
           VIBRATIONS MAY CAUSE SIGNIFICANT ERROR
 VIBRATIONAL TEMPERATURES:    775.94   935.76   989.20  1055.56  1175.94
          (KELVIN)           1247.38  1298.44  1357.24  1561.20  1593.69
                             1663.47  1703.58  1847.34  1988.65  2086.18
                             2185.56  2256.91  4687.87  4692.91  4737.45
                             5312.60

 Zero-point correction=                           0.071496 (Hartree/Particle)
 Thermal correction to Energy=                    0.075233
 Thermal correction to Enthalpy=                  0.076178
 Thermal correction to Gibbs Free Energy=         0.045246
 Sum of electronic and zero-point Energies=           -226.077326
 Sum of electronic and thermal Energies=              -226.073589
 Sum of electronic and thermal Enthalpies=            -226.072644
 Sum of electronic and thermal Free Energies=         -226.103576

                     E (Thermal)             CV                S
                      KCAL/MOL        CAL/MOL-KELVIN    CAL/MOL-KELVIN
 TOTAL                   47.210             13.285             65.101
 ELECTRONIC               0.000              0.000              0.000
 TRANSLATIONAL            0.889              2.981             38.570
 ROTATIONAL               0.889              2.981             24.092
 VIBRATIONAL             45.432              7.323              2.439
 VIBRATION  1             0.894              1.163              0.567
                       Q            LOG10(Q)             LN(Q)
 TOTAL BOT       0.154313D-20        -20.811596        -47.920472
 TOTAL V=0       0.118559D+13         12.073936         27.801264
 VIB (BOT)       0.170274D-32        -32.768851        -75.453068
 VIB (BOT)  1    0.293969D+00         -0.531699         -1.224282
 VIB (V=0)       0.130822D+01          0.116681          0.268667
 VIB (V=0)  1    0.108002D+01          0.033430          0.076975
 ELECTRONIC      0.100000D+01          0.000000          0.000000
 TRANSLATIONAL   0.220588D+08          7.343582         16.909224
 ROTATIONAL      0.410840D+05          4.613672         10.623373
 ***** Axes restored to original set *****
 -------------------------------------------------------------------
 Center     Atomic                   Forces (Hartrees/Bohr)
 Number     Number              X              Y              Z
 -------------------------------------------------------------------
    1          7          -0.000048727    0.000199707    0.000000000
    2          1          -0.000015299   -0.000039052    0.000000000
    3          6           0.000278673    0.000031463    0.000000000
    4          1           0.000052351   -0.000008015    0.000000000
    5          6          -0.000204977   -0.000057776    0.000000000
    6          1           0.000053307    0.000022125    0.000000000
    7          1          -0.000083637   -0.000049404    0.000000000
    8          6           0.000159125   -0.000052321    0.000000000
    9          7          -0.000190817   -0.000046727    0.000000000
 -------------------------------------------------------------------
 Cartesian Forces:  Max     0.000278673 RMS     0.000096272

 GradGradGradGradGradGradGradGradGradGradGradGradGradGradGradGradGradGrad
 Berny optimization.
 Internal  Forces:  Max     0.000191152 RMS     0.000060257
 Search for a local minimum.
 Step number   1 out of a maximum of  48
 All quantities printed in internal units (Hartrees-Bohrs-Radians)
 Second derivative matrix not updated -- analytic derivatives used.
     Eigenvalues ---    0.00550   0.01084   0.02020   0.02786   0.05982
     Eigenvalues ---    0.06234   0.09657   0.10299   0.10861   0.11729
     Eigenvalues ---    0.22947   0.24538   0.35324   0.37314   0.37667
     Eigenvalues ---    0.38029   0.41446   0.45662   0.48033   0.48893
     Eigenvalues ---    0.587261000.000001000.000001000.000001000.00000
     Eigenvalues --- 1000.000001000.000001000.000001000.000001000.00000
     Eigenvalues --- 1000.000001000.000001000.000001000.000001000.00000
     Eigenvalues --- 1000.000001000.000001000.00000
 Angle between quadratic step and forces=  34.16 degrees.
 Linear search not attempted -- first point.
 Iteration  1 RMS(Cart)=  0.00027090 RMS(Int)=  0.00000006
 Iteration  2 RMS(Cart)=  0.00000007 RMS(Int)=  0.00000001
 Variable       Old X    -DE/DX   Delta X   Delta X   Delta X     New X
                                 (Linear)    (Quad)   (Total)
    R1        2.59383  -0.00002   0.00000  -0.00018  -0.00018   2.59365
    R2        2.47828  -0.00019   0.00000  -0.00029  -0.00029   2.47799
    R3        1.89968  -0.00004   0.00000  -0.00007  -0.00007   1.89961
    R4        2.03711   0.00005   0.00000   0.00009   0.00009   2.03720
    R5        2.58640   0.00006   0.00000   0.00022   0.00022   2.58662
    R6        2.59440   0.00016   0.00000   0.00046   0.00046   2.59486
    R7        2.04135   0.00001   0.00000   0.00005   0.00005   2.04140
    R8        2.04219   0.00006   0.00000   0.00017   0.00017   2.04236
    R9        2.56940  -0.00005   0.00000  -0.00025  -0.00025   2.56915
    A1        1.83538   0.00005   0.00000   0.00003   0.00003   1.83541
    A2        2.32005   0.00005   0.00000   0.00008   0.00008   2.32013
    A3        2.12968   0.00010   0.00000   0.00039   0.00039   2.13007
    A4        1.83345  -0.00015   0.00000  -0.00047  -0.00047   1.83298
    A5        1.93287   0.00004   0.00000   0.00021   0.00021   1.93308
    A6        2.11801   0.00004   0.00000   0.00048   0.00048   2.11849
    A7        2.23230  -0.00008   0.00000  -0.00069  -0.00069   2.23161
    A8        2.19960  -0.00008   0.00000  -0.00066  -0.00066   2.19894
    A9        1.95090   0.00001   0.00000   0.00006   0.00006   1.95096
   A10        2.13269   0.00007   0.00000   0.00060   0.00060   2.13328
   A11        2.20246  -0.00001   0.00000   0.00006   0.00006   2.20252
   A12        2.20854  -0.00004   0.00000  -0.00022  -0.00022   2.20832
   A13        1.87218   0.00005   0.00000   0.00016   0.00016   1.87234
    D1        0.00000   0.00000   0.00000   0.00000   0.00000   0.00000
    D2        3.14159   0.00000   0.00000   0.00000   0.00000   3.14159
    D3        3.14159   0.00000   0.00000   0.00000   0.00000   3.14159
    D4        0.00000   0.00000   0.00000   0.00000   0.00000   0.00000
    D5        3.14159   0.00000   0.00000   0.00000   0.00000   3.14159
    D6        0.00000   0.00000   0.00000   0.00000   0.00000   0.00000
    D7        0.00000   0.00000   0.00000   0.00000   0.00000   0.00000
    D8        3.14159   0.00000   0.00000   0.00000   0.00000   3.14159
    D9        0.00000   0.00000   0.00000   0.00000   0.00000   0.00000
   D10        3.14159   0.00000   0.00000   0.00000   0.00000   3.14159
   D11        3.14159   0.00000   0.00000   0.00000   0.00000   3.14159
   D12        0.00000   0.00000   0.00000   0.00000   0.00000   0.00000
   D13        3.14159   0.00000   0.00000   0.00000   0.00000   3.14159
   D14        0.00000   0.00000   0.00000   0.00000   0.00000   0.00000
   D15        0.00000   0.00000   0.00000   0.00000   0.00000   0.00000
   D16        3.14159   0.00000   0.00000   0.00000   0.00000   3.14159
         Item               Value     Threshold  Converged?
 Maximum Force            0.000191     0.000450     YES
 RMS     Force            0.000060     0.000300     YES
 Maximum Displacement     0.000807     0.001800     YES
 RMS     Displacement     0.000271     0.001200     YES
 Predicted change in Energy=-2.423804D-07
 Optimization completed.
    -- Stationary point found.
                         ----------------------------
                         !   Optimized Parameters   !
                         ! (Angstroms and Degrees)  !
 ------------------------                            -------------------------
 ! Name  Definition              Value          Derivative Info.             !
 -----------------------------------------------------------------------------
 ! R1    R(1,5)                  1.3726         -DE/DX =    0.               !
 ! R2    R(1,8)                  1.3115         -DE/DX =   -0.0002           !
 ! R3    R(2,9)                  1.0053         -DE/DX =    0.               !
 ! R4    R(3,4)                  1.078          -DE/DX =    0.               !
 ! R5    R(3,5)                  1.3687         -DE/DX =    0.0001           !
 ! R6    R(3,9)                  1.3729         -DE/DX =    0.0002           !
 ! R7    R(5,6)                  1.0802         -DE/DX =    0.               !
 ! R8    R(7,8)                  1.0807         -DE/DX =    0.0001           !
 ! R9    R(8,9)                  1.3597         -DE/DX =   -0.0001           !
 ! A1    A(5,1,8)              105.1596         -DE/DX =    0.               !
 ! A2    A(4,3,5)              132.929          -DE/DX =    0.               !
 ! A3    A(4,3,9)              122.0219         -DE/DX =    0.0001           !
 ! A4    A(5,3,9)              105.0491         -DE/DX =   -0.0001           !
 ! A5    A(1,5,3)              110.7453         -DE/DX =    0.               !
 ! A6    A(1,5,6)              121.3531         -DE/DX =    0.               !
 ! A7    A(3,5,6)              127.9016         -DE/DX =   -0.0001           !
 ! A8    A(1,8,7)              126.0278         -DE/DX =   -0.0001           !
 ! A9    A(1,8,9)              111.7782         -DE/DX =    0.               !
 ! A10   A(7,8,9)              122.1941         -DE/DX =    0.0001           !
 ! A11   A(2,9,3)              126.1918         -DE/DX =    0.               !
 ! A12   A(2,9,8)              126.5403         -DE/DX =    0.               !
 ! A13   A(3,9,8)              107.2679         -DE/DX =    0.0001           !
 ! D1    D(8,1,5,3)              0.             -DE/DX =    0.               !
 ! D2    D(8,1,5,6)            180.             -DE/DX =    0.               !
 ! D3    D(5,1,8,7)            180.             -DE/DX =    0.               !
 ! D4    D(5,1,8,9)              0.             -DE/DX =    0.               !
 ! D5    D(4,3,5,1)            180.             -DE/DX =    0.               !
 ! D6    D(4,3,5,6)              0.             -DE/DX =    0.               !
 ! D7    D(9,3,5,1)              0.             -DE/DX =    0.               !
 ! D8    D(9,3,5,6)            180.             -DE/DX =    0.               !
 ! D9    D(4,3,9,2)              0.             -DE/DX =    0.               !
 ! D10   D(4,3,9,8)            180.             -DE/DX =    0.               !
 ! D11   D(5,3,9,2)            180.             -DE/DX =    0.               !
 ! D12   D(5,3,9,8)              0.             -DE/DX =    0.               !
 ! D13   D(1,8,9,2)            180.             -DE/DX =    0.               !
 ! D14   D(1,8,9,3)              0.             -DE/DX =    0.               !
 ! D15   D(7,8,9,2)              0.             -DE/DX =    0.               !
 ! D16   D(7,8,9,3)            180.             -DE/DX =    0.               !
 -----------------------------------------------------------------------------
 GradGradGradGradGradGradGradGradGradGradGradGradGradGradGradGradGradGrad

 1\1\GINC-PQS3\Freq\RB3PW91\6-31G(2df,p)\C3H4N2\RDJ3\12-May-2004\0\\#N
 GEOM=ALLCHECK GUESS=TCHECK RB3PW91/6-31G(2DF,P) FREQ\\1himidaz casno=2
 88324 method=16 basis=19\\0,1\N,-0.7426124603,-0.9815241521,0.\H,-0.00
 3085853,2.1059769976,0.\C,1.115898719,0.2967842661,0.\H,2.1144517545,0
 .7029424007,0.\C,0.6299853371,-0.9827182959,0.\H,1.1912419408,-1.90570
 56223,0.\H,-2.093918625,0.6704246677,0.\C,-1.0844657365,0.2845875445,0
 .\N,0.0030125838,1.1007299332,0.\\Version=x86-Linux-G98RevA.6\State=1-
 A'\HF=-226.1488221\RMSD=6.605e-09\RMSF=9.627e-05\Dipole=0.4279953,1.37
 21061,0.\DipoleDeriv=-0.4029366,-0.0698039,0.0000993,-0.0356427,-0.556
 4085,0.0002024,-0.0001683,-0.0000229,-0.3051399,0.1763834,-0.0029924,-
 0.0000423,-0.0058202,0.2057521,-0.0001119,-0.0001727,-0.0000743,0.3119
 73,-0.0316338,-0.1733124,0.0001222,0.039553,0.2079519,-0.000004,0.0006
 164,0.000199,-0.1249677,-0.0059339,-0.0336811,-0.0000048,-0.0604589,0.
 0549411,0.0000038,-0.0003068,0.0000271,0.1661977,0.1346106,-0.052735,0
 .0000342,-0.0848156,0.1780106,-0.0005944,0.0001616,0.0000003,-0.099217
 ,0.024749,0.063727,-0.0002867,0.0856029,-0.0037157,0.000434,-0.0001499
 ,-0.0000825,0.1312482,-0.0032611,0.0461036,-0.0000386,0.053297,0.04544
 37,0.0000577,-0.0001653,-0.0000567,0.1394649,0.190694,0.186484,0.00039
 27,0.067823,0.4603873,-0.0001303,0.0004695,0.0003362,0.0112962,-0.0826
 711,0.0362103,-0.0002759,-0.0595385,-0.5923621,0.0001428,-0.0002845,-0
 .0003263,-0.2308554\Polar=50.0362051,-1.3898704,47.3860434,0.0184516,-
 0.0085568,21.1662569\PG=CS [SG(C3H4N2)]\NImag=0\\0.47922122,-0.0379693
 6,0.60201707,0.00000788,-0.00000538,0.10529439,-0.00548964,-0.00773477
 ,-0.00000081,0.05726138,-0.00277018,-0.00109631,-0.00000111,-0.0031363
 0,0.48472645,-0.00000005,0.00000860,0.00709303,-0.00000030,0.00000156,
 0.01190915,-0.05513558,-0.00394774,0.00000124,0.01153671,-0.00645795,0
 .00000357,0.82159514,-0.07948829,0.00058708,-0.00000129,0.02515910,-0.
 00665279,0.00000166,0.13922553,0.67553802,-0.00000790,-0.00003305,0.01
 692739,0.00000078,-0.00000343,-0.00736354,-0.00000626,0.00000258,0.108
 76323,0.00058612,-0.00020315,0.00000184,-0.00002224,0.00004310,-0.0000
 0521,-0.31602169,-0.10567925,0.00000583,0.33393346,-0.00552441,-0.0043
 5846,0.00000074,-0.00087683,0.00046786,-0.00000209,-0.11568758,-0.1050
 4310,0.00000112,0.11361244,0.09563464,0.00000026,0.00001505,0.00727270
 ,-0.00000033,0.00000168,-0.00122082,0.00000422,0.00000075,-0.02046179,
 -0.00000641,-0.00000194,0.01844928,-0.27744460,0.00017710,-0.00000028,
 -0.00760040,0.00079866,-0.00000163,-0.12525317,-0.08221849,0.00001049,
 -0.00025617,-0.02131065,-0.00000179,0.60527529,-0.01060706,-0.09673768
 ,-0.00001073,0.00532701,-0.00060620,0.00000014,-0.10143267,-0.36703473
 ,0.00001283,0.00293973,0.00738890,-0.00000498,-0.10743114,0.86016631,-
 0.00000566,0.00000021,-0.07082379,0.00000061,0.00000100,0.00239294,-0.
 00000030,0.00000152,-0.06424764,-0.00000281,-0.00000136,-0.00227759,0.
 00000182,0.00000881,0.13348738,-0.01514024,0.02744557,-0.00000674,0.00
 110029,-0.00023612,-0.00000016,0.01027557,-0.01041855,0.00000458,-0.00
 012488,0.00058241,-0.00000168,-0.12755483,0.12686535,0.00000414,0.1390
 8609,-0.00055604,0.00663350,0.00001012,0.00107836,0.00002122,0.0000002
 4,0.01645046,-0.00997531,-0.00000884,-0.00039147,-0.00023644,0.0000030
 8,0.12895873,-0.28233979,-0.00000658,-0.14155412,0.28862024,0.00000215
 ,0.00000941,-0.00532560,-0.00000017,0.00000145,0.00204172,0.00000199,-
 0.00000050,-0.00099093,-0.00000246,-0.00000065,-0.00188491,-0.00000298
 ,-0.00000244,-0.02894980,-0.00000088,0.00000184,0.02330011,-0.00102374
 ,0.00371353,-0.00000394,-0.00053128,-0.00017038,-0.00000253,-0.0002945
 2,-0.00471825,-0.00000075,-0.00025722,0.00080039,-0.00000109,0.0016973
 9,0.00113248,0.00000019,0.00005799,-0.00007587,-0.00000034,0.33475139,
 0.02970377,-0.00723583,0.00000229,0.00069732,0.00034047,0.00000090,-0.
 00234658,-0.00438941,-0.00000105,-0.00073375,0.00106934,0.00000081,0.0
 0153447,-0.00537349,-0.00000084,0.00152796,0.00038877,0.00000040,-0.10
 452735,0.09607348,0.00000046,0.00000997,-0.00546567,-0.00000009,0.0000
 0102,-0.00133757,0.00000206,-0.00000034,0.00266944,-0.00000267,-0.0000
 0094,0.00192786,-0.00000228,-0.00000159,0.00708175,-0.00000077,0.00000
 154,0.00120137,-0.00000019,0.00000024,0.02097705,-0.11611186,0.0675970
 3,0.00000357,0.01533670,0.00808799,0.00000349,-0.09972160,0.02561114,-
 0.00000722,-0.00141397,0.00324241,0.00000415,-0.06572752,0.02977652,-0
 .00000139,-0.00685549,-0.00156392,0.00000156,-0.31645559,0.09766317,0.
 00000370,0.84981313,0.09223996,-0.39642377,0.00000057,-0.02277964,-0.0
 0911293,-0.00000886,-0.02654898,-0.00681863,0.00002711,0.00295170,-0.0
 0708597,-0.00001279,0.09105668,-0.02819585,0.00000039,-0.00023748,0.00
 108394,-0.00000833,0.09295274,-0.09209163,-0.00000813,-0.13015597,0.70
 576385,-0.00000986,-0.00001947,-0.07697984,0.00000105,-0.00000124,-0.0
 0866179,-0.00000402,0.00000262,0.01685885,-0.00000072,-0.00000028,0.00
 281936,0.00001079,0.00000952,0.01011544,0.00000468,-0.00000816,0.00545
 522,0.00000039,-0.00000117,-0.02486264,-0.00000841,0.00001699,0.135227
 00,-0.00946167,-0.04907821,-0.00000275,-0.07159153,0.00384118,0.000002
 83,-0.24698086,0.09252706,0.00000044,-0.01642341,0.02516181,0.00000267
 ,-0.00313599,0.05342978,0.00000341,-0.00084452,-0.00234612,0.00000112,
 -0.01794442,-0.02351902,-0.00000022,-0.25886381,-0.09947903,0.00000610
 ,0.62524622,0.01497161,-0.10338559,0.00000478,0.00226575,-0.46808775,-
 0.00000214,0.10074552,-0.17621112,0.00000274,-0.01253936,0.01216323,-0
 .00000166,-0.01156536,-0.08726746,-0.00000316,-0.00397504,-0.00419612,
 -0.00000118,0.01089269,0.01121832,-0.00000177,-0.10025836,-0.16711902,
 0.00000119,-0.00053746,0.98288552,0.00001273,0.00001467,0.02200740,-0.
 00000075,-0.00000091,-0.00485311,-0.00000248,-0.00000701,-0.05215502,0
 .00001261,0.00000539,-0.00462408,-0.00001414,-0.00001157,0.01322132,-0
 .00000317,0.00000676,0.00515283,0.00000826,-0.00000158,-0.00219157,0.0
 0000054,-0.00000697,-0.05997160,-0.00001360,0.00000121,0.08341383\\0.0
 0004873,-0.00019971,0.,0.00001530,0.00003905,0.,-0.00027867,-0.0000314
 6,0.,-0.00005235,0.00000802,0.,0.00020498,0.00005778,0.,-0.00005331,-0
 .00002213,0.,0.00008364,0.00004940,0.,-0.00015913,0.00005232,0.,0.0001
 9082,0.00004673,0.\\\@

 IF YOU WISH TO UNDERSTAND THE FRAGRANCE OF THE ROSE,
 OR THE TENACITY OF THE OAK;
 IF YOU ARE NOT SATISFIED UNTIL YOU KNOW THE SECRET PATHS
 BY WHICH THE SUNSHINE AND THE AIR ACHIEVE THESE WONDERS;
 IF YOU WISH TO SEE THE PATTERN WHICH UNDERLIES ONE LARGE FIELD OF
 HUMAN EXPERIENCE AND HUMAN MEASUREMENT, THEN TAKE UP CHEMISTRY.

                                         -- C. A. COULSON, 1973.
 Job cpu time:  0 days  1 hours  5 minutes 37.9 seconds.
 File lengths (MBytes):  RWF=   29 Int=    0 D2E=    0 Chk=    4 Scr=    1
 Normal termination of Gaussian 98.
