 Gaussian 03, Revision C.02,
 Gaussian 03:  IA32L-G03RevC.02 12-Jun-2004

 ----------------------------
 #B3PW91/6-311G(d,p) opt freq
 ----------------------------

 ---------------------------------------------------
 1H imidazole C3H4N2 casno=288324 method=16 basis=21
 ---------------------------------------------------
 Symbolic Z-matrix:
 Charge =  0 Multiplicity = 1

 SCF Done:  E(RB+HF-PW91) =  -226.129766945     A.U. after   13 cycles
 SCF Done:  E(RB+HF-PW91) =  -226.181189182     A.U. after   13 cycles
 SCF Done:  E(RB+HF-PW91) =  -226.188549362     A.U. after   12 cycles
 SCF Done:  E(RB+HF-PW91) =  -226.188800964     A.U. after   10 cycles
 SCF Done:  E(RB+HF-PW91) =  -226.188878486     A.U. after    9 cycles
 SCF Done:  E(RB+HF-PW91) =  -226.188883186     A.U. after    8 cycles
 Optimization completed.
    -- Stationary point found.
 Normal termination of Gaussian 03 at Fri Jan  7 18:25:15 2005.

 ----------------------------------------------------------------------
 #N Geom=AllCheck Guess=Read SCRF=Check GenChk RB3PW91/6-311G(d,p) Freq
 ----------------------------------------------------------------------

 1H imidazole C3H4N2 casno=288324 method=16 basis=21
 ---------------------------------------------------
 Redundant internal coordinates taken from checkpoint file:
 /scratch/Gau-17025.chk
 Charge =  0 Multiplicity = 1

                         Standard orientation:
 ---------------------------------------------------------------------
 Center     Atomic     Atomic              Coordinates (Angstroms)
 Number     Number      Type              X           Y           Z
 ---------------------------------------------------------------------
    1          7             0       -0.739354   -0.982359    0.000000
    2          1             0       -0.008001    2.108053    0.000000
    3          6             0        1.116185    0.299586    0.000000
    4          1             0        2.115594    0.703511    0.000000
    5          6             0        0.632214   -0.981081    0.000000
    6          1             0        1.195775   -1.902291    0.000000
    7          1             0       -2.098330    0.659967    0.000000
    8          6             0       -1.086659    0.280814    0.000000
    9          7             0        0.000000    1.101622    0.000000
 ---------------------------------------------------------------------

 SCF Done:  E(RB+HF-PW91) =  -226.188883186     A.U. after    1 cycles

 The electronic state is 1-A'.
 Alpha  occ. eigenvalues --  -14.36421 -14.27956 -10.20991 -10.18758 -10.16858
 Alpha  occ. eigenvalues --   -1.02539  -0.87820  -0.74986  -0.62271  -0.59599
 Alpha  occ. eigenvalues --   -0.56767  -0.44538  -0.44184  -0.43861  -0.40931
 Alpha  occ. eigenvalues --   -0.28916  -0.27153  -0.23664
 Alpha virt. eigenvalues --    0.02166   0.04153   0.06258   0.09167   0.09714
 Alpha virt. eigenvalues --    0.11698   0.19862   0.21594   0.23821   0.29005
 Alpha virt. eigenvalues --    0.32638   0.36558   0.38178   0.40456   0.40574

 Mulliken atomic charges:
              1
     1  N   -0.322659
     2  H    0.234497
     3  C    0.001022
     4  H    0.118453
     5  C   -0.081276
     6  H    0.112404
     7  H    0.122325
     8  C    0.169007
     9  N   -0.353773
 Sum of Mulliken charges=   0.00000

 Dipole moment (field-independent basis, Debye):
    X=     1.1040    Y=     3.5964    Z=     0.0000  Tot=     3.7621
 Quadrupole moment (field-independent basis, Debye-Ang):
   XX=   -26.2800   YY=   -25.2387   ZZ=   -31.5453
   XY=    -3.2348   XZ=     0.0000   YZ=     0.0000

  Exact polarizability:  49.780  -1.134  47.568   0.000   0.000  22.804
 Approx polarizability:  77.641   1.517  79.809   0.000   0.000  33.311

                     1                      2                      3
                    A"                     A"                     A"
 Frequencies --   546.2831               650.1781               685.7166
 Red. masses --     1.5867                 2.1537                 2.7725
 Frc consts  --     0.2790                 0.5364                 0.7681
 IR Inten    --    94.5109                14.1100                 3.7704

                     4                      5                      6
                    A"                     A"                     A"
 Frequencies --   733.4593               819.7354               873.8922
 Red. masses --     1.2317                 1.3859                 1.3470
 Frc consts  --     0.3904                 0.5487                 0.6061
 IR Inten    --    38.2424                35.2726                 4.5720

                     7                      8                      9
                    A'                     A'                     A'
 Frequencies --   906.9687               946.2618              1081.5407
 Red. masses --     5.3199                 4.3851                 1.5449
 Frc consts  --     2.5783                 2.3134                 1.0647
 IR Inten    --     8.2691                 2.2853                34.1267

                    10                     11                     12
                    A'                     A'                     A'
 Frequencies --  1101.3140              1151.1462              1183.0938
 Red. masses --     1.4735                 1.3570                 6.4656
 Frc consts  --     1.0530                 1.0595                 5.3321
 IR Inten    --    26.8677                 2.8769                 4.0173

                    13                     14                     15
                    A'                     A'                     A'
 Frequencies --  1280.1948              1379.3799              1449.7858
 Red. masses --     1.3546                 3.6504                 3.1512
 Frc consts  --     1.3080                 4.0923                 3.9025
 IR Inten    --     0.4942                 6.5701                12.9069

                    16                     17                     18
                    A'                     A'                     A'
 Frequencies --  1512.9129              1567.0618              3247.0452
 Red. masses --     3.3734                 3.3950                 1.0925
 Frc consts  --     4.5493                 4.9121                 6.7863
 IR Inten    --    17.6321                13.1799                 6.1430

                    19                     20                     21
                    A'                     A'                     A'
 Frequencies --  3251.0404              3281.2391              3676.5670
 Red. masses --     1.0971                 1.1047                 1.0816
 Frc consts  --     6.8319                 7.0078                 8.6142
 IR Inten    --     0.6455                 1.4297                57.2122

 - Thermochemistry -
 -------------------
 Temperature   298.150 Kelvin.  Pressure   1.00000 Atm.
 Atom  1 has atomic number  7 and mass  14.00307

 Molecular mass:    68.03745 amu.
 Principal axes and moments of inertia in atomic units:
                           1         2         3
     EIGENVALUES --   183.89523 191.23837 375.13361
           X            0.46453   0.88556   0.00000
           Y            0.88556  -0.46453   0.00000
           Z            0.00000   0.00000   1.00000
 This molecule is an asymmetric top.
 Rotational symmetry number  1.
 Rotational temperatures (Kelvin)      0.47100     0.45291     0.23089
 Rotational constants (GHZ):           9.81396     9.43713     4.81093
 Zero-point vibrational energy     187364.0 (Joules/Mol)
                                   44.78107 (Kcal/Mol)
 Warning -- explicit consideration of   1 degrees of freedom as
           vibrations may cause significant error
 Vibrational temperatures:    785.98   935.46   986.59  1055.28  1179.41
          (Kelvin)           1257.33  1304.92  1361.46  1556.09  1584.54
                             1656.24  1702.21  1841.91  1984.62  2085.92
                             2176.74  2254.65  4671.77  4677.52  4720.97
                             5289.75

 Zero-point correction=                           0.071363 (Hartree/Particle)
 Thermal correction to Energy=                    0.075096
 Thermal correction to Enthalpy=                  0.076040
 Thermal correction to Gibbs Free Energy=         0.045116
 Sum of electronic and zero-point Energies=           -226.117520
 Sum of electronic and thermal Energies=              -226.113788
 Sum of electronic and thermal Enthalpies=            -226.112843
 Sum of electronic and thermal Free Energies=         -226.143767

                     E (Thermal)             CV                S
                      KCal/Mol        Cal/Mol-Kelvin    Cal/Mol-Kelvin
 Total                   47.123             13.268             65.085
 Electronic               0.000              0.000              0.000
 Translational            0.889              2.981             38.570
 Rotational               0.889              2.981             24.093
 Vibrational             45.346              7.307              2.422
 Vibration  1             0.901              1.148              0.552

 Optimization completed.
    -- Stationary point found.
 Normal termination of Gaussian 03 at Fri Jan  7 18:40:21 2005.
