 Gaussian 98, Revision A.6,
 Gaussian 98:  IBM-RS6000-G98RevA.6 19-Oct-1998

 ---------------------
 #HF/CEP-121G opt freq
 ---------------------

 --------------------------------
 1H imidazole C3H4N2 casno=288324
 --------------------------------
 Symbolic Z-matrix:
 Charge =  0 Multiplicity = 1

 SCF Done:  E(RHF) =  -37.9675022461     A.U. after   13 cycles
 SCF Done:  E(RHF) =  -38.0250187108     A.U. after   13 cycles
 SCF Done:  E(RHF) =  -38.0337169269     A.U. after   13 cycles
 SCF Done:  E(RHF) =  -38.0341589708     A.U. after   11 cycles
 SCF Done:  E(RHF) =  -38.0343219506     A.U. after   12 cycles
 SCF Done:  E(RHF) =  -38.0343317409     A.U. after   10 cycles
 Optimization completed.
    -- Stationary point found.
 Normal termination of Gaussian 98.

 -----------------------------------------------
 #N Geom=AllCheck Guess=TCheck RHF/CEP-121G Freq
 -----------------------------------------------

 1H imidazole C3H4N2 casno=288324
 --------------------------------
 Redundant internal coordinates taken from checkpointfile:
 /wrk/rdj3/Gau-18168.chk
 Charge =  0 Multiplicity = 1

                         Standard orientation:
 ---------------------------------------------------------------------
 Center     Atomic     Atomic              Coordinates (Angstroms)
 Number     Number      Type              X           Y           Z
 ---------------------------------------------------------------------
    1          7             0       -0.760188   -0.994829    0.000000
    2          1             0       -0.000417    2.080936    0.000000
    3          6             0        1.121725    0.264678    0.000000
    4          1             0        2.117184    0.648472    0.000000
    5          6             0        0.636242   -1.016345    0.000000
    6          1             0        1.176110   -1.936383    0.000000
    7          1             0       -2.105474    0.645503    0.000000
    8          6             0       -1.104583    0.273478    0.000000
    9          7             0        0.000000    1.089674    0.000000
 ---------------------------------------------------------------------

 SCF Done:  E(RHF) =  -38.0343317409     A.U. after    1 cycles

  The electronic state is 1-A'.
 Alpha  occ. eigenvalues --   -1.36716  -1.18688  -1.03155  -0.84116  -0.80942
 Alpha  occ. eigenvalues --   -0.77214  -0.61688  -0.61113  -0.60206  -0.57965
 Alpha  occ. eigenvalues --   -0.42577  -0.39998  -0.33290
 Alpha virt. eigenvalues --    0.13192   0.15801   0.17662   0.18619   0.20114
 Alpha virt. eigenvalues --    0.21012   0.27764   0.31358   0.34007   0.35436
 Alpha virt. eigenvalues --    0.45722   0.46140   0.46607   0.50037   0.50499

  Exact polarizability:  46.380  -0.712  46.200   0.000   0.000  23.795
 Approx polarizability:  41.967   0.449  45.295   0.000   0.000  22.339

                     1                      2                      3
                    A"                     A"                     A"
 Frequencies --   666.2929               693.8879               725.8231
 Red. masses --     2.7361                 1.2591                 2.9967
 Frc consts  --     0.7157                 0.3572                 0.9302
 IR Inten    --    89.7921               112.4061                 5.1899
 Raman Activ --     1.2534                 0.0419                 0.2308

                     4                      5                      6
                    A"                     A"                     A'
 Frequencies --   856.1308               956.5404               988.7836
 Red. masses --     1.2434                 1.3983                 5.7810
 Frc consts  --     0.5369                 0.7538                 3.3301
 IR Inten    --    64.1100                24.4867                 9.0629
 Raman Activ --     0.4586                 0.4152                 2.9025

                     7                      8                      9
                    A"                     A'                     A'
 Frequencies --  1010.8291              1019.1039              1132.0212
 Red. masses --     1.3813                 4.7634                 1.8396
 Frc consts  --     0.8315                 2.9148                 1.3890
 IR Inten    --     2.0906                 3.7402                71.9467
 Raman Activ --     1.2501                 2.4189                 3.4624

                    10                     11                     12
                    A'                     A'                     A'
 Frequencies --  1176.1410              1195.8155              1249.2578
 Red. masses --     1.9237                 3.9542                 1.3982
 Frc consts  --     1.5679                 3.3314                 1.2857
 IR Inten    --    21.0449                 2.0674                 1.2715
 Raman Activ --     3.3774                22.2242                15.1399

                    13                     14                     15
                    A'                     A'                     A'
 Frequencies --  1379.0796              1460.7946              1539.4567
 Red. masses --     1.4350                 2.9720                 2.3635
 Frc consts  --     1.6080                 3.7366                 3.3002
 IR Inten    --     1.2604                 9.4735                20.8044
 Raman Activ --    12.3367                29.2042                12.5760

                    16                     17                     18
                    A'                     A'                     A'
 Frequencies --  1605.6927              1685.0833              3431.1034
 Red. masses --     2.9829                 2.7454                 1.0933
 Frc consts  --     4.5312                 4.5930                 7.5831
 IR Inten    --    23.2146                24.3293                 2.7260
 Raman Activ --    34.4514                 3.2525                54.7295

                    19                     20                     21
                    A'                     A'                     A'
 Frequencies --  3436.9958              3459.9601              3919.8054
 Red. masses --     1.1019                 1.1135                 1.0841
 Frc consts  --     7.6689                 7.8540                 9.8145
 IR Inten    --     3.8732                 5.8970                76.0417
 Raman Activ --    50.9478               120.4611                79.5305

 - Thermochemistry -
 -------------------
 Temperature   298.150 Kelvin.  Pressure   1.00000 Atm.
 Atom  1 has atomic number  7 and mass  14.00307

 Molecular mass:    68.03745 amu.
 Principal axes and moments of inertia in atomic units:
                           1         2         3
     EIGENVALUES --   188.48994 191.86037 380.35030
           X            0.51364   0.85801   0.00000
           Y            0.85801  -0.51364   0.00000
           Z            0.00000   0.00000   1.00000
 THIS MOLECULE IS AN ASYMMETRIC TOP.
 ROTATIONAL SYMMETRY NUMBER  1.
 ROTATIONAL TEMPERATURES (KELVIN)      0.45951     0.45144     0.22772
 ROTATIONAL CONSTANTS (GHZ)            9.57473     9.40653     4.74494
 Zero-point vibrational energy     200904.5 (Joules/Mol)
                                   48.01732 (Kcal/Mol)
 VIBRATIONAL TEMPERATURES:    958.64   998.34  1044.29  1231.77  1376.24
          (KELVIN)           1422.63  1454.35  1466.25  1628.72  1692.19
                             1720.50  1797.39  1984.18  2101.75  2214.92
                             2310.22  2424.45  4936.56  4945.04  4978.08
                             5639.69

 Zero-point correction=                           0.076520 (Hartree/Particle)
 Thermal correction to Energy=                    0.080008
 Thermal correction to Enthalpy=                  0.080952
 Thermal correction to Gibbs Free Energy=         0.050340
 Sum of electronic and zero-point Energies=            -37.957811
 Sum of electronic and thermal Energies=               -37.954324
 Sum of electronic and thermal Enthalpies=             -37.953380
 Sum of electronic and thermal Free Energies=          -37.983992

                     E (Thermal)             CV                S
                      KCAL/MOL        CAL/MOL-KELVIN    CAL/MOL-KELVIN
 TOTAL                   50.206             11.792             64.428
 ELECTRONIC               0.000              0.000              0.000
 TRANSLATIONAL            0.889              2.981             38.570
 ROTATIONAL               0.889              2.981             24.135
 VIBRATIONAL             48.428              5.831              1.723
                       Q            LOG10(Q)             LN(Q)
 TOTAL BOT       0.700388D-23        -23.154661        -53.315577
 TOTAL V=0       0.110172D+13         12.042072         27.727896
 VIB (BOT)       0.756273D-35        -35.121322        -80.869831
 VIB (V=0)       0.118963D+01          0.075412          0.173642
 ELECTRONIC      0.100000D+01          0.000000          0.000000
 TRANSLATIONAL   0.220588D+08          7.343582         16.909224
 ROTATIONAL      0.419834D+05          4.623078         10.645030
 ***** Axes restored to original set *****
 -------------------------------------------------------------------
 Center     Atomic                   Forces (Hartrees/Bohr)
 Number     Number              X              Y              Z
 -------------------------------------------------------------------
    1          7           0.000310534    0.000000000    0.000121157
    2          1          -0.000025994    0.000000000   -0.000003555
    3          6           0.000130430    0.000000000   -0.000241906
    4          1          -0.000009817    0.000000000   -0.000004596
    5          6          -0.000190681    0.000000000   -0.000210890
    6          1           0.000052020    0.000000000    0.000022283
    7          1           0.000013979    0.000000000    0.000018408
    8          6          -0.000180885    0.000000000   -0.000226507
    9          7          -0.000099588    0.000000000    0.000525606
 -------------------------------------------------------------------
 Cartesian Forces:  Max     0.000525606 RMS     0.000154227

 GradGradGradGradGradGradGradGradGradGradGradGradGradGradGradGradGradGrad
 Berny optimization.
 Internal  Forces:  Max     0.000278953 RMS     0.000089502
 Search for a local minimum.
 Step number   1 out of a maximum of  48
 All quantities printed in internal units (Hartrees-Bohrs-Radians)
 Second derivative matrix not updated -- analytic derivatives used.
     Eigenvalues ---    0.00834   0.01541   0.02663   0.03336   0.06947
     Eigenvalues ---    0.07270   0.11390   0.12082   0.12715   0.13365
     Eigenvalues ---    0.26995   0.27929   0.37333   0.41355   0.41461
     Eigenvalues ---    0.41566   0.45477   0.48027   0.54575   0.55028
     Eigenvalues ---    0.638361000.000001000.000001000.000001000.00000
     Eigenvalues --- 1000.000001000.000001000.000001000.000001000.00000
     Eigenvalues --- 1000.000001000.000001000.000001000.000001000.00000
     Eigenvalues --- 1000.000001000.000001000.00000
 Angle between quadratic step and forces=  23.97 degrees.
 Linear search not attempted -- first point.
 Iteration  1 RMS(Cart)=  0.00025242 RMS(Int)=  0.00000006
 Iteration  2 RMS(Cart)=  0.00000006 RMS(Int)=  0.00000002
 Variable       Old X    -DE/DX   Delta X   Delta X   Delta X     New X
                                 (Linear)    (Quad)   (Total)
    R1        2.63918   0.00023   0.00000   0.00065   0.00065   2.63983
    R2        2.48354  -0.00008   0.00000   0.00003   0.00003   2.48357
    R3        1.87321   0.00000   0.00000   0.00000   0.00000   1.87322
    R4        2.01611   0.00001   0.00000   0.00001   0.00001   2.01612
    R5        2.58880  -0.00003   0.00000   0.00000   0.00000   2.58879
    R6        2.63133  -0.00028   0.00000  -0.00061  -0.00061   2.63072
    R7        2.01584  -0.00002   0.00000  -0.00004  -0.00004   2.01580
    R8        2.01784   0.00001   0.00000   0.00003   0.00003   2.01787
    R9        2.59539  -0.00022   0.00000  -0.00064  -0.00064   2.59475
    A1        1.85135  -0.00016   0.00000  -0.00041  -0.00041   1.85094
    A2        2.30104   0.00005   0.00000   0.00008   0.00008   2.30112
    A3        2.13947   0.00006   0.00000   0.00019   0.00019   2.13966
    A4        1.84268  -0.00011   0.00000  -0.00027  -0.00027   1.84240
    A5        1.91765   0.00004   0.00000   0.00008   0.00008   1.91772
    A6        2.11685  -0.00007   0.00000  -0.00057  -0.00057   2.11628
    A7        2.24869   0.00003   0.00000   0.00049   0.00049   2.24918
    A8        2.19181  -0.00003   0.00000  -0.00019  -0.00019   2.19162
    A9        1.94202   0.00002   0.00000   0.00004   0.00004   1.94206
   A10        2.14935   0.00001   0.00000   0.00015   0.00015   2.14950
   A11        2.20535  -0.00013   0.00000  -0.00045  -0.00045   2.20491
   A12        2.20675  -0.00008   0.00000  -0.00012  -0.00012   2.20663
   A13        1.87108   0.00021   0.00000   0.00056   0.00056   1.87165
    D1        0.00000   0.00000   0.00000   0.00000   0.00000   0.00000
    D2        3.14159   0.00000   0.00000   0.00000   0.00000   3.14159
    D3        3.14159   0.00000   0.00000   0.00000   0.00000   3.14159
    D4        0.00000   0.00000   0.00000   0.00000   0.00000   0.00000
    D5        3.14159   0.00000   0.00000   0.00000   0.00000   3.14159
    D6        0.00000   0.00000   0.00000   0.00000   0.00000   0.00000
    D7        0.00000   0.00000   0.00000   0.00000   0.00000   0.00000
    D8        3.14159   0.00000   0.00000   0.00000   0.00000   3.14159
    D9        0.00000   0.00000   0.00000   0.00000   0.00000   0.00000
   D10        3.14159   0.00000   0.00000   0.00000   0.00000   3.14159
   D11        3.14159   0.00000   0.00000   0.00000   0.00000   3.14159
   D12        0.00000   0.00000   0.00000   0.00000   0.00000   0.00000
   D13        3.14159   0.00000   0.00000   0.00000   0.00000   3.14159
   D14        0.00000   0.00000   0.00000   0.00000   0.00000   0.00000
   D15        0.00000   0.00000   0.00000   0.00000   0.00000   0.00000
   D16        3.14159   0.00000   0.00000   0.00000   0.00000   3.14159
         Item               Value     Threshold  Converged?
 Maximum Force            0.000279     0.000450     YES
 RMS     Force            0.000090     0.000300     YES
 Maximum Displacement     0.000715     0.001800     YES
 RMS     Displacement     0.000252     0.001200     YES
 Predicted change in Energy=-4.107211D-07
 Optimization completed.
    -- Stationary point found.
                         ----------------------------
                         !   Optimized Parameters   !
                         ! (Angstroms and Degrees)  !
 ------------------------                            -------------------------
 ! Name  Definition              Value          Derivative Info.             !
 -----------------------------------------------------------------------------
 ! R1    R(1,5)                  1.3966         -DE/DX =    0.0002           !
 ! R2    R(1,8)                  1.3142         -DE/DX =   -0.0001           !
 ! R3    R(2,9)                  0.9913         -DE/DX =    0.               !
 ! R4    R(3,4)                  1.0669         -DE/DX =    0.               !
 ! R5    R(3,5)                  1.3699         -DE/DX =    0.               !
 ! R6    R(3,9)                  1.3924         -DE/DX =   -0.0003           !
 ! R7    R(5,6)                  1.0667         -DE/DX =    0.               !
 ! R8    R(7,8)                  1.0678         -DE/DX =    0.               !
 ! R9    R(8,9)                  1.3734         -DE/DX =   -0.0002           !
 ! A1    A(5,1,8)              106.0745         -DE/DX =   -0.0002           !
 ! A2    A(4,3,5)              131.8396         -DE/DX =    0.0001           !
 ! A3    A(4,3,9)              122.5827         -DE/DX =    0.0001           !
 ! A4    A(5,3,9)              105.5777         -DE/DX =   -0.0001           !
 ! A5    A(1,5,3)              109.873          -DE/DX =    0.               !
 ! A6    A(1,5,6)              121.2867         -DE/DX =   -0.0001           !
 ! A7    A(3,5,6)              128.8403         -DE/DX =    0.               !
 ! A8    A(1,8,7)              125.5815         -DE/DX =    0.               !
 ! A9    A(1,8,9)              111.2697         -DE/DX =    0.               !
 ! A10   A(7,8,9)              123.1488         -DE/DX =    0.               !
 ! A11   A(2,9,3)              126.3575         -DE/DX =   -0.0001           !
 ! A12   A(2,9,8)              126.4373         -DE/DX =   -0.0001           !
 ! A13   A(3,9,8)              107.2052         -DE/DX =    0.0002           !
 ! D1    D(8,1,5,3)              0.             -DE/DX =    0.               !
 ! D2    D(8,1,5,6)            180.             -DE/DX =    0.               !
 ! D3    D(5,1,8,7)            180.             -DE/DX =    0.               !
 ! D4    D(5,1,8,9)              0.             -DE/DX =    0.               !
 ! D5    D(4,3,5,1)            180.             -DE/DX =    0.               !
 ! D6    D(4,3,5,6)              0.             -DE/DX =    0.               !
 ! D7    D(9,3,5,1)              0.             -DE/DX =    0.               !
 ! D8    D(9,3,5,6)            180.             -DE/DX =    0.               !
 ! D9    D(4,3,9,2)              0.             -DE/DX =    0.               !
 ! D10   D(4,3,9,8)            180.             -DE/DX =    0.               !
 ! D11   D(5,3,9,2)            180.             -DE/DX =    0.               !
 ! D12   D(5,3,9,8)              0.             -DE/DX =    0.               !
 ! D13   D(1,8,9,2)            180.             -DE/DX =    0.               !
 ! D14   D(1,8,9,3)              0.             -DE/DX =    0.               !
 ! D15   D(7,8,9,2)              0.             -DE/DX =    0.               !
 ! D16   D(7,8,9,3)            180.             -DE/DX =    0.               !
 -----------------------------------------------------------------------------
 GradGradGradGradGradGradGradGradGradGradGradGradGradGradGradGradGradGrad

 1\1\GINC-FERRUM\Freq\RHF\CEP-121G\C3H4N2\RDJ3\31-Aug-2000\0\\#N GEOM=A
 LLCHECK GUESS=TCHECK RHF/CEP-121G FREQ\\1H imidazole C3H4N2 casno=2883
 24\\0,1\N,0.5040444654,0.,1.1460843355\H,0.4913129125,0.,-2.0221042183
 \C,-1.0276253039,0.,-0.5218306807\H,-1.9044480511,0.,-1.1296283738\C,-
 0.8580471544,0.,0.8375648468\H,-1.5997220964,0.,1.6042761863\H,2.19832
 6789,0.,-0.1305876007\C,1.1379217409,0.,-0.0051799647\N,0.2570621977,0
 .,-1.0589188953\\Version=IBM-RS6000-G98RevA.6\State=1-A'\HF=-38.034331
 7\RMSD=1.750e-09\RMSF=1.542e-04\Dipole=-0.1624311,0.,-1.6837286\Dipole
 Deriv=-0.4518147,0.,0.013301,0.,-0.364727,0.,0.0884826,0.,-0.59571,0.2
 095814,0.,-0.0010253,0.,0.4128337,0.,0.0050935,0.,0.2258708,-0.0086153
 ,0.,-0.3400217,0.,-0.1248266,0.,-0.0788154,0.,0.2603084,0.0132989,0.,-
 0.0504095,0.,0.229098,0.,-0.077223,0.,0.0553714,0.252092,0.,-0.0196493
 ,0.,-0.1939273,0.,-0.1606568,0.,0.0874997,-0.0011101,0.,0.0720564,0.,0
 .2021864,0.,0.0979961,0.,0.0401019,-0.022631,0.,0.0312293,0.,0.1842096
 ,0.,0.0324874,0.,0.088527,0.1776655,0.,0.0813564,0.,0.0497481,0.,-0.02
 59255,0.,0.6620331,-0.1684667,0.,0.2131626,0.,-0.3945949,0.,0.1185612,
 0.,-0.8240023\Polar=46.696122,0.,23.795099,-0.5917301,0.,45.8830916\Po
 larDeriv=-11.2749064,0.,-0.8918729,-0.6140364,0.,6.8452948,0.,0.33844,
 0.,0.,3.0437868,0.,7.1689109,0.,1.9736548,2.7263862,0.,7.506216,0.7699
 067,0.,-0.0301843,-1.7267686,0.,1.2524803,0.,0.1940187,0.,0.,-0.769896
 3,0.,-1.0572382,0.,0.011551,1.7024489,0.,-8.8287977,-0.0811983,0.,0.13
 43296,-1.6944927,0.,-1.8454775,0.,-3.3643444,0.,0.,-3.9407698,0.,-7.74
 22121,0.,-3.4119235,-2.9267051,0.,-4.3697461,-6.684784,0.,-0.2797825,-
 3.0823333,0.,-2.2891037,0.,-0.2525434,0.,0.,0.0727342,0.,-2.9539992,0.
 ,0.1342347,-2.8122498,0.,-3.2731839,8.2161545,0.,0.0007791,3.616184,0.
 ,-3.3523584,0.,-0.7508403,0.,0.,3.5238134,0.,7.8789307,0.,2.8394604,3.
 2734387,0.,3.0306942,-4.4404674,0.,-0.2354471,3.4071701,0.,-2.7724683,
 0.,-0.9170889,0.,0.,0.3965917,0.,2.8274829,0.,0.0672809,-2.9399903,0.,
 5.2735357,9.9374012,0.,0.4117111,-0.7486314,0.,0.9947343,0.,0.5006105,
 0.,0.,0.0267111,0.,-0.815305,0.,0.0288477,1.6787007,0.,-0.3537488,7.05
 08778,0.,2.1364586,-0.4096002,0.,0.4942823,0.,4.0979685,0.,0.,-1.33507
 68,0.,-7.2340942,0.,-1.3460756,-1.2777586,0.,1.7238562,-3.4929841,0.,-
 1.2459916,1.2525085,0.,0.6726162,0.,0.1537792,0.,0.,-1.0178943,0.,1.92
 75241,0.,-0.2970303,0.5757293,0.,-0.7088256\HyperPolar=40.8606023,0.,-
 1.7282125,0.,-19.4543577,0.,-8.1305251,-35.0568036,0.,-31.0443675\PG=C
 S [SG(C3H4N2)]\NImag=0\\0.53940004,0.,0.12061989,-0.07326175,0.,0.6491
 0156,-0.00357703,0.,-0.00874567,0.09905212,0.,0.00701336,0.,0.,0.01655
 008,-0.00368911,0.,-0.00112795,-0.10802936,0.,0.51855789,-0.03558332,0
 .,-0.02018186,0.00803208,0.,-0.00710427,0.81654563,0.,0.02033057,0.,0.
 ,-0.00556689,0.,0.,0.14545116,-0.09614760,0.,-0.02586502,0.03425256,0.
 ,0.00124340,0.19959767,0.,0.84757410,0.00244878,0.,0.00112179,0.000191
 18,0.,0.00043294,-0.28916415,0.,-0.15535336,0.30050180,0.,0.00832334,0
 .,0.,-0.00125313,0.,0.,-0.03268458,0.,0.,0.02499079,-0.00339462,0.,-0.
 00525149,-0.00107891,0.,0.00034315,-0.16639513,0.,-0.18490754,0.165909
 37,0.,0.17443058,-0.26733208,0.,-0.02615825,-0.00998469,0.,-0.00044511
 ,-0.12556569,0.,-0.02922740,0.00670795,0.,-0.02504902,0.73269733,0.,-0
 .08284672,0.,0.,0.00323355,0.,0.,-0.08395890,0.,0.,0.00171211,0.,0.,0.
 16705922,-0.04734340,0.,-0.12957705,0.00275115,0.,0.00192200,-0.042297
 10,0.,-0.44698980,0.00677773,0.,0.00352848,-0.18674004,0.,0.90192787,-
 0.01583603,0.,0.02514294,0.00085141,0.,0.00008367,0.01033561,0.,-0.010
 99968,-0.00016093,0.,0.00089978,-0.22130022,0.,0.16593755,0.23200373,0
 .,-0.00454501,0.,0.,0.00191035,0.,0.,0.00222969,0.,0.,-0.00323043,0.,0
 .,-0.03986733,0.,0.,0.02956427,-0.01281980,0.,0.01338046,0.00139592,0.
 ,0.00013831,0.02418136,0.,-0.00511208,-0.00073482,0.,-0.00020218,0.170
 87355,0.,-0.24855952,-0.17612465,0.,0.24548529,-0.00564716,0.,-0.00300
 124,-0.00044443,0.,-0.00079169,0.00208973,0.,-0.00326209,-0.00042005,0
 .,0.00029490,0.00190036,0.,0.00249357,-0.00041185,0.,-0.00012487,0.408
 84593,0.,-0.00377199,0.,0.,-0.00150065,0.,0.,0.00333574,0.,0.,0.001632
 38,0.,0.,0.00926846,0.,0.,0.00074499,0.,0.,0.02817043,0.03290386,0.,0.
 00207786,0.00070013,0.,0.00036120,-0.00074233,0.,-0.00687439,-0.001060
 37,0.,0.00114397,0.00277184,0.,-0.00465334,0.00147627,0.,0.00072284,-0
 .04004121,0.,0.07041013,-0.21094172,0.,0.13801565,0.01948186,0.,0.0170
 3317,-0.10024970,0.,-0.00209627,-0.00245061,0.,0.00514280,-0.09232036,
 0.,0.02521831,-0.00639871,0.,-0.00477389,-0.39545198,0.,0.03923186,1.0
 2081021,0.,-0.09194269,0.,0.,-0.00611860,0.,0.,0.01869324,0.,0.,0.0034
 2107,0.,0.,0.01125796,0.,0.,0.00626793,0.,0.,-0.03846026,0.,0.,0.17539
 734,0.16409885,0.,-0.37749177,-0.02509832,0.,-0.00962513,-0.04432865,0
 .,-0.01832860,0.00554742,0.,-0.00558164,0.08550824,0.,0.00536174,-0.00
 270054,0.,0.00017634,0.03648606,0.,-0.07104809,-0.12238730,0.,0.710549
 60,-0.00293148,0.,-0.03293161,-0.11360251,0.,0.10250974,-0.28644020,0.
 ,0.06323616,-0.01765398,0.,0.02367083,-0.02480260,0.,0.07320222,0.0009
 1698,0.,-0.00187280,-0.01046055,0.,-0.03524006,-0.23247899,0.,-0.09712
 575,0.68745333,0.,0.02681924,0.,0.,-0.01426807,0.,0.,-0.06783003,0.,0.
 ,-0.00291156,0.,0.,0.01414164,0.,0.,0.00692555,0.,0.,0.00058091,0.,0.,
 -0.07851600,0.,0.,0.11505832,0.03965357,0.,-0.12524659,0.10385251,0.,-
 0.51181286,0.05727031,0.,-0.16074006,-0.02264070,0.,0.01649668,0.00846
 618,0.,-0.08296039,-0.00371533,0.,-0.00602946,0.00794656,0.,0.00785981
 ,-0.09538434,0.,-0.23401244,-0.09544874,0.,1.09644530\\-0.00031053,0.,
 -0.00012116,0.00002599,0.,0.00000356,-0.00013043,0.,0.00024191,0.00000
 982,0.,0.00000460,0.00019068,0.,0.00021089,-0.00005202,0.,-0.00002228,
 -0.00001398,0.,-0.00001841,0.00018088,0.,0.00022651,0.00009959,0.,-0.0
 0052561\\\@

 BE LIKE A POSTAGE STAMP.  STICK TO ONE THING UNTIL
 YOU GET THERE -- JOSH BILLINGS
 Job cpu time:  0 days  0 hours  1 minutes 50.4 seconds.
 File lengths (MBytes):  RWF=   17 Int=    0 D2E=    0 Chk=    8 Scr=    1
 Normal termination of Gaussian 98.
