 Gaussian 98, Revision A.6,
 Gaussian 98:  IBM-RS6000-G98RevA.6 19-Oct-1998

 ----------------
 #HF/SDD opt freq
 ----------------

 --------------------------------
 1H imidazole C3H4N2 casno=288324
 --------------------------------
 Symbolic Z-matrix:
 Charge =  0 Multiplicity = 1

 SCF Done:  E(RHF) =  -224.677257380     A.U. after   15 cycles
 SCF Done:  E(RHF) =  -224.731656787     A.U. after   13 cycles
 SCF Done:  E(RHF) =  -224.738662499     A.U. after   13 cycles
 SCF Done:  E(RHF) =  -224.739072385     A.U. after   11 cycles
 SCF Done:  E(RHF) =  -224.739221133     A.U. after   12 cycles
 SCF Done:  E(RHF) =  -224.739229520     A.U. after   10 cycles
 Optimization completed.
    -- Stationary point found.
 Normal termination of Gaussian 98.

 ------------------------------------------
 #N Geom=AllCheck Guess=TCheck RHF/SDD Freq
 ------------------------------------------

 1H imidazole C3H4N2 casno=288324
 --------------------------------
 Redundant internal coordinates taken from checkpointfile:
 /wrk/rdj3/Gau-17290.chk
 Charge =  0 Multiplicity = 1

                         Standard orientation:
 ---------------------------------------------------------------------
 Center     Atomic     Atomic              Coordinates (Angstroms)
 Number     Number      Type              X           Y           Z
 ---------------------------------------------------------------------
    1          7             0       -0.744916   -0.972734    0.000000
    2          1             0       -0.007392    2.098773    0.000000
    3          6             0        1.121761    0.290879    0.000000
    4          1             0        2.114428    0.673984    0.000000
    5          6             0        0.645031   -0.989030    0.000000
    6          1             0        1.190813   -1.902398    0.000000
    7          1             0       -2.098114    0.650975    0.000000
    8          6             0       -1.097678    0.287605    0.000000
    9          7             0        0.000000    1.107297    0.000000
 ---------------------------------------------------------------------

 SCF Done:  E(RHF) =  -224.739229520     A.U. after    1 cycles

  The electronic state is 1-A'.
 Alpha  occ. eigenvalues --  -15.62529 -15.55706 -11.31155 -11.28289 -11.25803
 Alpha  occ. eigenvalues --   -1.36250  -1.17982  -1.02667  -0.83861  -0.80757
 Alpha  occ. eigenvalues --   -0.77317  -0.61833  -0.61313  -0.60547  -0.58173
 Alpha  occ. eigenvalues --   -0.42652  -0.40219  -0.33484
 Alpha virt. eigenvalues --    0.15834   0.21210   0.21937   0.26878   0.27930
 Alpha virt. eigenvalues --    0.30551   0.32200   0.38379   0.39189   0.44649
 Alpha virt. eigenvalues --    0.47239   0.50636   0.51736   0.54839   0.55294

  Exact polarizability:  44.353  -0.547  44.623   0.000   0.000  18.513
 Approx polarizability:  40.187   0.499  43.822   0.000   0.000  17.073

                     1                      2                      3
                    A"                     A"                     A"
 Frequencies --   683.8157               717.5198               734.2514
 Red. masses --     3.0378                 1.1879                 2.7874
 Frc consts  --     0.8369                 0.3603                 0.8854
 IR Inten    --    20.8303               218.3024                 2.5047
 Raman Activ --     2.3822                 0.4188                 0.9289

                     4                      5                      6
                    A"                     A"                     A'
 Frequencies --   870.5078               974.5502               998.7715
 Red. masses --     1.2481                 1.4321                 5.8332
 Frc consts  --     0.5572                 0.8013                 3.4284
 IR Inten    --    72.2969                19.1522                 9.8421
 Raman Activ --     2.5015                 4.6351                 3.6237

                     7                      8                      9
                    A"                     A'                     A'
 Frequencies --  1028.6246              1029.8692              1141.8068
 Red. masses --     1.4144                 4.8518                 1.8450
 Frc consts  --     0.8817                 3.0319                 1.4172
 IR Inten    --     0.5019                 3.3754                75.3221
 Raman Activ --     4.2776                 3.0653                 3.3778

                    10                     11                     12
                    A'                     A'                     A'
 Frequencies --  1184.1245              1206.7596              1259.5438
 Red. masses --     1.8570                 4.4858                 1.3926
 Frc consts  --     1.5341                 3.8489                 1.3017
 IR Inten    --    20.7234                 2.4568                 1.4837
 Raman Activ --     2.6534                20.7154                14.9853

                    13                     14                     15
                    A'                     A'                     A'
 Frequencies --  1393.5905              1477.5425              1547.6038
 Red. masses --     1.4085                 2.9371                 2.2359
 Frc consts  --     1.6117                 3.7778                 3.1552
 IR Inten    --     1.0532                 8.6386                26.0021
 Raman Activ --    11.2836                26.7377                11.5809

                    16                     17                     18
                    A'                     A'                     A'
 Frequencies --  1622.7767              1701.0754              3491.1346
 Red. masses --     3.0825                 2.8843                 1.0931
 Frc consts  --     4.7827                 4.9174                 7.8498
 IR Inten    --    22.7502                24.8330                 3.1232
 Raman Activ --    34.7332                 3.3545                49.5735

                    19                     20                     21
                    A'                     A'                     A'
 Frequencies --  3498.9398              3518.7152              3953.3267
 Red. masses --     1.1009                 1.1122                 1.0839
 Frc consts  --     7.9411                 8.1135                 9.9805
 IR Inten    --     5.1957                 3.9944               105.5644
 Raman Activ --    39.9095               119.3712                75.7837

 - Thermochemistry -
 -------------------
 Temperature   298.150 Kelvin.  Pressure   1.00000 Atm.
 Atom  1 has atomic number  7 and mass  14.00307

 Molecular mass:    68.03745 amu.
 Principal axes and moments of inertia in atomic units:
                           1         2         3
     EIGENVALUES --   187.38989 190.34303 377.73292
           X            0.48945   0.87203   0.00000
           Y            0.87203  -0.48945   0.00000
           Z            0.00000   0.00000   1.00000
 THIS MOLECULE IS AN ASYMMETRIC TOP.
 ROTATIONAL SYMMETRY NUMBER  1.
 ROTATIONAL TEMPERATURES (KELVIN)      0.46221     0.45504     0.22930
 ROTATIONAL CONSTANTS (GHZ)            9.63094     9.48152     4.77782
 Zero-point vibrational energy     203573.6 (Joules/Mol)
                                   48.65527 (Kcal/Mol)
 VIBRATIONAL TEMPERATURES:    983.85  1032.34  1056.42  1252.46  1402.15
          (KELVIN)           1437.00  1479.95  1481.74  1642.80  1703.68
                             1736.25  1812.19  2005.05  2125.84  2226.64
                             2334.80  2447.45  5022.94  5034.16  5062.62
                             5687.92

 Zero-point correction=                           0.077537 (Hartree/Particle)
 Thermal correction to Energy=                    0.080989
 Thermal correction to Enthalpy=                  0.081933
 Thermal correction to Gibbs Free Energy=         0.051378
 Sum of electronic and zero-point Energies=           -224.661692
 Sum of electronic and thermal Energies=              -224.658241
 Sum of electronic and thermal Enthalpies=            -224.657297
 Sum of electronic and thermal Free Energies=         -224.687851

                     E (Thermal)             CV                S
                      KCAL/MOL        CAL/MOL-KELVIN    CAL/MOL-KELVIN
 TOTAL                   50.821             11.571             64.307
 ELECTRONIC               0.000              0.000              0.000
 TRANSLATIONAL            0.889              2.981             38.570
 ROTATIONAL               0.889              2.981             24.114
 VIBRATIONAL             49.044              5.609              1.623
                       Q            LOG10(Q)             LN(Q)
 TOTAL BOT       0.233189D-23        -23.632292        -54.415363
 TOTAL V=0       0.107661D+13         12.032058         27.704838
 VIB (BOT)       0.254415D-35        -35.594458        -81.959268
 VIB (V=0)       0.117461D+01          0.069893          0.160934
 ELECTRONIC      0.100000D+01          0.000000          0.000000
 TRANSLATIONAL   0.220588D+08          7.343582         16.909224
 ROTATIONAL      0.415512D+05          4.618583         10.634681
 ***** Axes restored to original set *****
 -------------------------------------------------------------------
 Center     Atomic                   Forces (Hartrees/Bohr)
 Number     Number              X              Y              Z
 -------------------------------------------------------------------
    1          7           0.000318028    0.000000000    0.000130829
    2          1          -0.000028169    0.000000000    0.000005470
    3          6           0.000089916    0.000000000   -0.000244746
    4          1          -0.000014232    0.000000000   -0.000004634
    5          6          -0.000165298    0.000000000   -0.000218125
    6          1           0.000048268    0.000000000    0.000012787
    7          1           0.000009961    0.000000000    0.000026327
    8          6          -0.000173838    0.000000000   -0.000238378
    9          7          -0.000084637    0.000000000    0.000530469
 -------------------------------------------------------------------
 Cartesian Forces:  Max     0.000530469 RMS     0.000154090

 GradGradGradGradGradGradGradGradGradGradGradGradGradGradGradGradGradGrad
 Berny optimization.
 Internal  Forces:  Max     0.000262900 RMS     0.000090797
 Search for a local minimum.
 Step number   1 out of a maximum of  48
 All quantities printed in internal units (Hartrees-Bohrs-Radians)
 Second derivative matrix not updated -- analytic derivatives used.
     Eigenvalues ---    0.00912   0.01610   0.02705   0.03382   0.07149
     Eigenvalues ---    0.07465   0.11592   0.12266   0.12849   0.13521
     Eigenvalues ---    0.27361   0.28200   0.37802   0.42798   0.42923
     Eigenvalues ---    0.43033   0.45984   0.48956   0.55534   0.56221
     Eigenvalues ---    0.654381000.000001000.000001000.000001000.00000
     Eigenvalues --- 1000.000001000.000001000.000001000.000001000.00000
     Eigenvalues --- 1000.000001000.000001000.000001000.000001000.00000
     Eigenvalues --- 1000.000001000.000001000.00000
 Angle between quadratic step and forces=  22.81 degrees.
 Linear search not attempted -- first point.
 Iteration  1 RMS(Cart)=  0.00024360 RMS(Int)=  0.00000005
 Iteration  2 RMS(Cart)=  0.00000006 RMS(Int)=  0.00000002
 Variable       Old X    -DE/DX   Delta X   Delta X   Delta X     New X
                                 (Linear)    (Quad)   (Total)
    R1        2.62680   0.00023   0.00000   0.00063   0.00063   2.62743
    R2        2.47323  -0.00008   0.00000   0.00004   0.00004   2.47326
    R3        1.87367  -0.00001   0.00000  -0.00001  -0.00001   1.87366
    R4        2.01072   0.00001   0.00000   0.00001   0.00001   2.01074
    R5        2.58101  -0.00004   0.00000   0.00000   0.00000   2.58100
    R6        2.62181  -0.00026   0.00000  -0.00055  -0.00055   2.62126
    R7        2.01069  -0.00002   0.00000  -0.00005  -0.00005   2.01064
    R8        2.01139   0.00001   0.00000   0.00002   0.00002   2.01141
    R9        2.58885  -0.00022   0.00000  -0.00065  -0.00065   2.58820
    A1        1.85543  -0.00016   0.00000  -0.00043  -0.00043   1.85500
    A2        2.29567   0.00006   0.00000   0.00010   0.00010   2.29577
    A3        2.14413   0.00007   0.00000   0.00023   0.00023   2.14436
    A4        1.84339  -0.00013   0.00000  -0.00033  -0.00033   1.84306
    A5        1.91562   0.00006   0.00000   0.00014   0.00014   1.91576
    A6        2.12114  -0.00007   0.00000  -0.00051  -0.00051   2.12062
    A7        2.24643   0.00002   0.00000   0.00038   0.00038   2.24680
    A8        2.19210  -0.00004   0.00000  -0.00025  -0.00025   2.19185
    A9        1.93930   0.00002   0.00000   0.00005   0.00005   1.93935
   A10        2.15178   0.00002   0.00000   0.00020   0.00020   2.15198
   A11        2.20739  -0.00013   0.00000  -0.00045  -0.00045   2.20695
   A12        2.20476  -0.00008   0.00000  -0.00013  -0.00013   2.20463
   A13        1.87103   0.00022   0.00000   0.00058   0.00058   1.87161
    D1        0.00000   0.00000   0.00000   0.00000   0.00000   0.00000
    D2        3.14159   0.00000   0.00000   0.00000   0.00000   3.14159
    D3        3.14159   0.00000   0.00000   0.00000   0.00000   3.14159
    D4        0.00000   0.00000   0.00000   0.00000   0.00000   0.00000
    D5        3.14159   0.00000   0.00000   0.00000   0.00000   3.14159
    D6        0.00000   0.00000   0.00000   0.00000   0.00000   0.00000
    D7        0.00000   0.00000   0.00000   0.00000   0.00000   0.00000
    D8        3.14159   0.00000   0.00000   0.00000   0.00000   3.14159
    D9        0.00000   0.00000   0.00000   0.00000   0.00000   0.00000
   D10        3.14159   0.00000   0.00000   0.00000   0.00000   3.14159
   D11        3.14159   0.00000   0.00000   0.00000   0.00000   3.14159
   D12        0.00000   0.00000   0.00000   0.00000   0.00000   0.00000
   D13        3.14159   0.00000   0.00000   0.00000   0.00000   3.14159
   D14        0.00000   0.00000   0.00000   0.00000   0.00000   0.00000
   D15        0.00000   0.00000   0.00000   0.00000   0.00000   0.00000
   D16        3.14159   0.00000   0.00000   0.00000   0.00000   3.14159
         Item               Value     Threshold  Converged?
 Maximum Force            0.000263     0.000450     YES
 RMS     Force            0.000091     0.000300     YES
 Maximum Displacement     0.000713     0.001800     YES
 RMS     Displacement     0.000244     0.001200     YES
 Predicted change in Energy=-4.134945D-07
 Optimization completed.
    -- Stationary point found.
                         ----------------------------
                         !   Optimized Parameters   !
                         ! (Angstroms and Degrees)  !
 ------------------------                            -------------------------
 ! Name  Definition              Value          Derivative Info.             !
 -----------------------------------------------------------------------------
 ! R1    R(1,5)                  1.39           -DE/DX =    0.0002           !
 ! R2    R(1,8)                  1.3088         -DE/DX =   -0.0001           !
 ! R3    R(2,9)                  0.9915         -DE/DX =    0.               !
 ! R4    R(3,4)                  1.064          -DE/DX =    0.               !
 ! R5    R(3,5)                  1.3658         -DE/DX =    0.               !
 ! R6    R(3,9)                  1.3874         -DE/DX =   -0.0003           !
 ! R7    R(5,6)                  1.064          -DE/DX =    0.               !
 ! R8    R(7,8)                  1.0644         -DE/DX =    0.               !
 ! R9    R(8,9)                  1.37           -DE/DX =   -0.0002           !
 ! A1    A(5,1,8)              106.3084         -DE/DX =   -0.0002           !
 ! A2    A(4,3,5)              131.5323         -DE/DX =    0.0001           !
 ! A3    A(4,3,9)              122.8495         -DE/DX =    0.0001           !
 ! A4    A(5,3,9)              105.6182         -DE/DX =   -0.0001           !
 ! A5    A(1,5,3)              109.7572         -DE/DX =    0.0001           !
 ! A6    A(1,5,6)              121.5321         -DE/DX =   -0.0001           !
 ! A7    A(3,5,6)              128.7107         -DE/DX =    0.               !
 ! A8    A(1,8,7)              125.5983         -DE/DX =    0.               !
 ! A9    A(1,8,9)              111.1139         -DE/DX =    0.               !
 ! A10   A(7,8,9)              123.2878         -DE/DX =    0.               !
 ! A11   A(2,9,3)              126.4743         -DE/DX =   -0.0001           !
 ! A12   A(2,9,8)              126.3234         -DE/DX =   -0.0001           !
 ! A13   A(3,9,8)              107.2023         -DE/DX =    0.0002           !
 ! D1    D(8,1,5,3)              0.             -DE/DX =    0.               !
 ! D2    D(8,1,5,6)            180.             -DE/DX =    0.               !
 ! D3    D(5,1,8,7)            180.             -DE/DX =    0.               !
 ! D4    D(5,1,8,9)              0.             -DE/DX =    0.               !
 ! D5    D(4,3,5,1)            180.             -DE/DX =    0.               !
 ! D6    D(4,3,5,6)              0.             -DE/DX =    0.               !
 ! D7    D(9,3,5,1)              0.             -DE/DX =    0.               !
 ! D8    D(9,3,5,6)            180.             -DE/DX =    0.               !
 ! D9    D(4,3,9,2)              0.             -DE/DX =    0.               !
 ! D10   D(4,3,9,8)            180.             -DE/DX =    0.               !
 ! D11   D(5,3,9,2)            180.             -DE/DX =    0.               !
 ! D12   D(5,3,9,8)              0.             -DE/DX =    0.               !
 ! D13   D(1,8,9,2)            180.             -DE/DX =    0.               !
 ! D14   D(1,8,9,3)              0.             -DE/DX =    0.               !
 ! D15   D(7,8,9,2)              0.             -DE/DX =    0.               !
 ! D16   D(7,8,9,3)            180.             -DE/DX =    0.               !
 -----------------------------------------------------------------------------
 GradGradGradGradGradGradGradGradGradGradGradGradGradGradGradGradGradGrad

 1\1\GINC-AURUM\Freq\RHF\SDD\C3H4N2\RDJ3\08-Sep-2000\0\\#N GEOM=ALLCHEC
 K GUESS=TCHECK RHF/SDD FREQ\\1H imidazole C3H4N2 casno=288324\\0,1\N,0
 .5005859,0.,1.1182688343\H,0.4910631324,0.,-2.0405293981\C,-1.02447933
 39,0.,-0.5416640843\H,-1.9020801302,0.,-1.1433069406\C,-0.8556741703,0
 .,0.8136746066\H,-1.5973295977,0.,1.5766074953\H,2.1916736715,0.,-0.14
 97196675\C,1.1344146635,0.,-0.0267879823\N,0.2552863812,0.,-1.07746693
 84\\Version=IBM-RS6000-G98RevA.6\State=1-A'\HF=-224.7392295\RMSD=1.590
 e-09\RMSF=1.541e-04\Dipole=-0.1683368,0.,-1.6780356\DipoleDeriv=-0.440
 8236,0.,0.0101563,0.,-0.3855076,0.,0.0926269,0.,-0.6007289,0.2201839,0
 .,-0.0084901,0.,0.4362922,0.,-0.0027318,0.,0.27223,-0.0121011,0.,-0.34
 21059,0.,-0.1624524,0.,-0.0958927,0.,0.2625929,0.0220267,0.,-0.053487,
 0.,0.245539,0.,-0.07638,0.,0.0578078,0.2516018,0.,-0.0158114,0.,-0.167
 7511,0.,-0.1521171,0.,0.0886882,0.0012581,0.,0.0697073,0.,0.2092815,0.
 ,0.0983849,0.,0.042477,-0.0270707,0.,0.0359416,0.,0.1912743,0.,0.04019
 1,0.,0.0925573,0.1852668,0.,0.0880232,0.,0.063024,0.,-0.0288618,0.,0.6
 648537,-0.2003419,0.,0.2160661,0.,-0.4297,0.,0.1247806,0.,-0.8804779\P
 olar=44.6122184,0.,18.5132286,-0.5492453,0.,44.3630475\PolarDeriv=-11.
 1236408,0.,-0.2882702,-0.2549582,0.,6.4870535,0.,-0.2909293,0.,0.,2.84
 90732,0.,6.9739698,0.,1.1879891,2.7281417,0.,7.5563882,0.7699517,0.,-0
 .1136339,-1.6872968,0.,1.2356949,0.,0.3001435,0.,0.,-1.0457161,0.,-0.9
 424626,0.,-0.0736144,1.7255109,0.,-8.6365281,-0.5284367,0.,0.6368366,-
 1.9245634,0.,-2.0354475,0.,-5.6554362,0.,0.,-6.3347348,0.,-8.1195943,0
 .,-1.4424466,-3.2431074,0.,-4.4494628,-6.4751858,0.,-0.1030897,-2.9837
 275,0.,-2.1389188,0.,0.4768525,0.,0.,0.3963463,0.,-2.9267664,0.,0.0535
 599,-2.6629317,0.,-3.1369133,7.9303059,0.,0.8131435,3.9772042,0.,-2.90
 60049,0.,-1.2599725,0.,0.,6.028166,0.,8.2164753,0.,1.1479452,2.9078488
 ,0.,3.2086645,-4.3242909,0.,-0.3361644,3.2783462,0.,-2.8147543,0.,-0.4
 155855,0.,0.,0.0023702,0.,2.708942,0.,-0.0465432,-2.7776236,0.,5.02717
 57,9.6735521,0.,-0.0007241,-0.6323892,0.,0.9532939,0.,-0.4986697,0.,0.
 ,0.0173635,0.,-0.8942363,0.,0.1525983,1.7165042,0.,-0.3773379,7.560179
 3,0.,-0.1294739,-0.7091492,0.,0.6730335,0.,7.2783696,0.,0.,-1.5095129,
 0.,-7.1874797,0.,-0.8844691,-1.0893189,0.,1.681018,-3.4824347,0.,-0.47
 86239,0.9365338,0.,0.5460496,0.,0.0652276,0.,0.,-0.4033553,0.,2.171152
 ,0.,-0.0950192,0.694976,0.,-0.8730042\HyperPolar=44.7364173,0.,5.32712
 99,0.,-15.1126142,0.,-5.5217197,-23.7460195,0.,-30.0404549\PG=CS [SG(C
 3H4N2)]\NImag=0\\0.55179582,0.,0.12466675,-0.07862106,0.,0.66387644,-0
 .00373493,0.,-0.00848674,0.10046521,0.,0.00693967,0.,0.,0.01784142,-0.
 00360141,0.,-0.00109813,-0.11071206,0.,0.52721589,-0.03704182,0.,-0.02
 171168,0.00726922,0.,-0.00633982,0.83531167,0.,0.02216509,0.,0.,-0.004
 80262,0.,0.,0.15429657,-0.09744700,0.,-0.02715234,0.03492043,0.,0.0009
 8067,0.20561689,0.,0.86639625,0.00239502,0.,0.00122969,0.00013213,0.,0
 .00022096,-0.30086922,0.,-0.16002509,0.31246874,0.,0.00828364,0.,0.,-0
 .00124261,0.,0.,-0.03494831,0.,0.,0.02601742,-0.00372656,0.,-0.0052389
 8,-0.00113586,0.,0.00036222,-0.17139478,0.,-0.18850458,0.17149394,0.,0
 .17858614,-0.27166676,0.,-0.02422731,-0.00975416,0.,-0.00054534,-0.126
 58502,0.,-0.03182386,0.00671131,0.,-0.02592386,0.75059562,0.,-0.086693
 07,0.,0.,0.00322601,0.,0.,-0.08938150,0.,0.,0.00264452,0.,0.,0.1733939
 8,-0.04833034,0.,-0.13013797,0.00278306,0.,0.00183665,-0.04237534,0.,-
 0.45758360,0.00560855,0.,0.00278978,-0.19217705,0.,0.92315165,-0.01643
 870,0.,0.02493771,0.00080295,0.,0.00003610,0.01072542,0.,-0.00997130,-
 0.00011798,0.,0.00094349,-0.22950320,0.,0.17171164,0.24038040,0.,-0.00
 421744,0.,0.,0.00193731,0.,0.,0.00275409,0.,0.,-0.00343413,0.,0.,-0.04
 070231,0.,0.,0.02985523,-0.01269651,0.,0.01363786,0.00121248,0.,0.0002
 8510,0.02440749,0.,-0.00603767,-0.00069899,0.,-0.00012956,0.17721942,0
 .,-0.25541691,-0.18288412,0.,0.25269650,-0.00606127,0.,-0.00204223,-0.
 00068496,0.,-0.00063141,0.00186968,0.,-0.00280823,-0.00050221,0.,0.000
 24507,0.00184917,0.,0.00209680,-0.00047350,0.,-0.00013796,0.42407122,0
 .,-0.00330355,0.,0.,-0.00159497,0.,0.,0.00326101,0.,0.,0.00165762,0.,0
 .,0.00942507,0.,0.,0.00066741,0.,0.,0.02899024,0.03365370,0.,0.0017493
 3,0.00071890,0.,0.00042046,-0.00077231,0.,-0.00693051,-0.00099572,0.,0
 .00112351,0.00298180,0.,-0.00453271,0.00147755,0.,0.00070086,-0.041055
 08,0.,0.07191596,-0.21522220,0.,0.14122774,0.02016926,0.,0.01659109,-0
 .10359153,0.,-0.00277657,-0.00238857,0.,0.00535228,-0.09487502,0.,0.02
 744762,-0.00645365,0.,-0.00502601,-0.40991647,0.,0.04033904,1.04483834
 ,0.,-0.09540949,0.,0.,-0.00507254,0.,0.,0.01956846,0.,0.,0.00345573,0.
 ,0.,0.01238499,0.,0.,0.00621911,0.,0.,-0.04037913,0.,0.,0.18275000,0.1
 7189883,0.,-0.38768078,-0.02554224,0.,-0.01025561,-0.04468864,0.,-0.01
 898828,0.00505490,0.,-0.00564109,0.08572302,0.,0.00498115,-0.00241619,
 0.,0.00002032,0.03701076,0.,-0.07196257,-0.12969678,0.,0.72525369,-0.0
 0402516,0.,-0.03230612,-0.11466472,0.,0.10498189,-0.28708840,0.,0.0643
 1473,-0.01782921,0.,0.02414629,-0.02677191,0.,0.07323506,0.00107825,0.
 ,-0.00139581,-0.01015166,0.,-0.03634787,-0.23256015,0.,-0.09734365,0.6
 9201297,0.,0.02756840,0.,0.,-0.01723167,0.,0.,-0.07291280,0.,0.,-0.002
 43388,0.,0.,0.01570231,0.,0.,0.00692074,0.,0.,0.00127630,0.,0.,-0.0835
 1712,0.,0.,0.12462773,0.03887035,0.,-0.12795544,0.10624203,0.,-0.51974
 724,0.05725819,0.,-0.16217994,-0.02188824,0.,0.01665256,0.00877318,0.,
 -0.08508803,-0.00383487,0.,-0.00575650,0.00732228,0.,0.00751567,-0.093
 45840,0.,-0.23572685,-0.09928453,0.,1.11228577\\-0.00031803,0.,-0.0001
 3083,0.00002817,0.,-0.00000547,-0.00008992,0.,0.00024475,0.00001423,0.
 ,0.00000463,0.00016530,0.,0.00021812,-0.00004827,0.,-0.00001279,-0.000
 00996,0.,-0.00002633,0.00017384,0.,0.00023838,0.00008464,0.,-0.0005304
 7\\\@

 MAN IS A SINGULAR CREATURE.  HE HAS A SET OF GIFTS
 WHICH MAKE HIM UNIQUE AMONG THE ANIMALS: SO THAT,
 UNLIKE THEM, HE IS NOT A FIGURE IN THE LANDSCAPE --
 HE IS A SHAPER OF THE LANDSCAPE.

                       -- JACOB BRONOWSKI
 Job cpu time:  0 days  0 hours  1 minutes 40.9 seconds.
 File lengths (MBytes):  RWF=   16 Int=    0 D2E=    0 Chk=    8 Scr=    1
 Normal termination of Gaussian 98.
