 Gaussian 98, Revision A.6,
 Gaussian 98:  IBM-RS6000-G98RevA.6 19-Oct-1998

 ------------------------
 #HF/aug-cc-pVDZ opt freq
 ------------------------

 --------------------------------
 1H imidazole C3H4N2 casno=288324
 --------------------------------
 Symbolic Z-matrix:
 Charge =  0 Multiplicity = 1

 SCF Done:  E(RHF) =  -224.794325759     A.U. after   14 cycles
 SCF Done:  E(RHF) =  -224.842898127     A.U. after   13 cycles
 SCF Done:  E(RHF) =  -224.848517707     A.U. after   13 cycles
 SCF Done:  E(RHF) =  -224.848831874     A.U. after   11 cycles
 SCF Done:  E(RHF) =  -224.848922615     A.U. after   11 cycles
 SCF Done:  E(RHF) =  -224.848927424     A.U. after    8 cycles
 Optimization completed.
    -- Stationary point found.
 Normal termination of Gaussian 98.

 --------------------------------------------------
 #N Geom=AllCheck Guess=TCheck RHF/Aug-CC-pVDZ Freq
 --------------------------------------------------

 1H imidazole C3H4N2 casno=288324
 --------------------------------
 Redundant internal coordinates taken from checkpointfile:
 /wrk/rdj3/Gau-15468.chk
 Charge =  0 Multiplicity = 1

                         Standard orientation:
 ---------------------------------------------------------------------
 Center     Atomic     Atomic              Coordinates (Angstroms)
 Number     Number      Type              X           Y           Z
 ---------------------------------------------------------------------
    1          7             0       -0.742704   -0.967564    0.000000
    2          1             0       -0.015623    2.090685    0.000000
    3          6             0        1.112184    0.289603    0.000000
    4          1             0        2.112179    0.680551    0.000000
    5          6             0        0.631587   -0.977791    0.000000
    6          1             0        1.189376   -1.896926    0.000000
    7          1             0       -2.084845    0.659521    0.000000
    8          6             0       -1.077465    0.281516    0.000000
    9          7             0        0.000000    1.097021    0.000000
 ---------------------------------------------------------------------

 SCF Done:  E(RHF) =  -224.848927424     A.U. after    1 cycles

  The electronic state is 1-A'.
 Alpha  occ. eigenvalues --  -15.62675 -15.54959 -11.29965 -11.26546 -11.24694
 Alpha  occ. eigenvalues --   -1.35370  -1.17485  -1.01595  -0.83334  -0.80440
 Alpha  occ. eigenvalues --   -0.76408  -0.61373  -0.60387  -0.60355  -0.57299
 Alpha  occ. eigenvalues --   -0.43657  -0.40126  -0.32530
 Alpha virt. eigenvalues --    0.02661   0.04154   0.05000   0.06193   0.08901
 Alpha virt. eigenvalues --    0.10130   0.12112   0.12476   0.13369   0.13421
 Alpha virt. eigenvalues --    0.14056   0.15656   0.15987   0.17186   0.18068

  Exact polarizability:  53.215  -0.471  51.812   0.000   0.000  32.998
 Approx polarizability:  49.403   0.066  50.545   0.000   0.000  33.919

                     1                      2                      3
                    A"                     A"                     A"
 Frequencies --   541.9306               685.8107               725.0266
 Red. masses --     1.4446                 2.1989                 2.8322
 Frc consts  --     0.2500                 0.6094                 0.8772
 IR Inten    --   113.0459                 5.3239                12.3315
 Raman Activ --     0.1780                 0.3134                 0.2486

                     4                      5                      6
                    A"                     A"                     A'
 Frequencies --   831.4114               965.4954               976.9526
 Red. masses --     1.2483                 1.4112                 5.3468
 Frc consts  --     0.5084                 0.7751                 3.0067
 IR Inten    --    63.9579                24.1959                 6.3441
 Raman Activ --     2.2411                 2.0060                 0.8772

                     7                      8                      9
                    A"                     A'                     A'
 Frequencies --   992.2451              1013.8821              1141.3422
 Red. masses --     1.3856                 4.4564                 1.6919
 Frc consts  --     0.8038                 2.6991                 1.2985
 IR Inten    --     0.3651                 1.5623                56.9788
 Raman Activ --     2.3718                 1.0392                 1.4971

                    10                     11                     12
                    A'                     A'                     A'
 Frequencies --  1169.4529              1218.7866              1237.3994
 Red. masses --     1.5715                 2.4137                 1.9681
 Frc consts  --     1.2663                 2.1125                 1.7755
 IR Inten    --    12.6500                 4.1687                 6.1705
 Raman Activ --     1.3646                 7.3368                27.5984

                    13                     14                     15
                    A'                     A'                     A'
 Frequencies --  1388.8472              1481.3259              1569.5795
 Red. masses --     1.3631                 3.3363                 2.6429
 Frc consts  --     1.5491                 4.3133                 3.8362
 IR Inten    --     0.3601                 8.5154                23.1513
 Raman Activ --    11.2192                36.6677                28.2942

                    16                     17                     18
                    A'                     A'                     A'
 Frequencies --  1639.8210              1715.8946              3408.7605
 Red. masses --     3.2187                 3.6082                 1.0986
 Frc consts  --     5.0994                 6.2593                 7.5214
 IR Inten    --    25.5944                20.1825                 5.1376
 Raman Activ --    41.7754                 3.9140                48.1952

                    19                     20                     21
                    A'                     A'                     A'
 Frequencies --  3411.6218              3442.1927              3909.6732
 Red. masses --     1.0942                 1.1085                 1.0829
 Frc consts  --     7.5036                 7.7384                 9.7522
 IR Inten    --     2.1563                 1.7504                94.6823
 Raman Activ --    77.4751                96.3960                82.4605

 - Thermochemistry -
 -------------------
 Temperature   298.150 Kelvin.  Pressure   1.00000 Atm.
 Atom  1 has atomic number  7 and mass  14.00307

 Molecular mass:    68.03745 amu.
 Principal axes and moments of inertia in atomic units:
                           1         2         3
     EIGENVALUES --   182.92290 187.97514 370.89804
           X            0.49296   0.87005   0.00000
           Y            0.87005  -0.49296   0.00000
           Z            0.00000   0.00000   1.00000
 THIS MOLECULE IS AN ASYMMETRIC TOP.
 ROTATIONAL SYMMETRY NUMBER  1.
 ROTATIONAL TEMPERATURES (KELVIN)      0.47350     0.46077     0.23352
 ROTATIONAL CONSTANTS (GHZ)            9.86613     9.60096     4.86587
 Zero-point vibrational energy     200179.8 (Joules/Mol)
                                   47.84413 (Kcal/Mol)
 WARNING-- EXPLICIT CONSIDERATION OF   1 DEGREES OF FREEDOM AS
           VIBRATIONS MAY CAUSE SIGNIFICANT ERROR
 VIBRATIONAL TEMPERATURES:    779.71   986.72  1043.15  1196.21  1389.12
          (KELVIN)           1405.61  1427.61  1458.74  1642.13  1682.57
                             1753.55  1780.33  1998.23  2131.29  2258.26
                             2359.32  2468.78  4904.42  4908.53  4952.52
                             5625.12

 Zero-point correction=                           0.076244 (Hartree/Particle)
 Thermal correction to Energy=                    0.079810
 Thermal correction to Enthalpy=                  0.080754
 Thermal correction to Gibbs Free Energy=         0.050063
 Sum of electronic and zero-point Energies=           -224.772683
 Sum of electronic and thermal Energies=              -224.769117
 Sum of electronic and thermal Enthalpies=            -224.768173
 Sum of electronic and thermal Free Energies=         -224.798865

                     E (Thermal)             CV                S
                      KCAL/MOL        CAL/MOL-KELVIN    CAL/MOL-KELVIN
 TOTAL                   50.082             12.101             64.595
 ELECTRONIC               0.000              0.000              0.000
 TRANSLATIONAL            0.889              2.981             38.570
 ROTATIONAL               0.889              2.981             24.060
 VIBRATIONAL             48.304              6.140              1.965
 VIBRATION  1             0.897              1.157              0.561
                       Q            LOG10(Q)             LN(Q)
 TOTAL BOT       0.939337D-23        -23.027178        -53.022038
 TOTAL V=0       0.110308D+13         12.042608         27.729130
 VIB (BOT)       0.105336D-34        -34.977422        -80.538490
 VIB (BOT)  1    0.291821D+00         -0.534884         -1.231615
 VIB (V=0)       0.123699D+01          0.092365          0.212677
 VIB (V=0)  1    0.107893D+01          0.032993          0.075969
 ELECTRONIC      0.100000D+01          0.000000          0.000000
 TRANSLATIONAL   0.220588D+08          7.343582         16.909224
 ROTATIONAL      0.404260D+05          4.606661         10.607229
 ***** Axes restored to original set *****
 -------------------------------------------------------------------
 Center     Atomic                   Forces (Hartrees/Bohr)
 Number     Number              X              Y              Z
 -------------------------------------------------------------------
    1          7           0.000234692    0.000000000    0.000122876
    2          1          -0.000011418    0.000000000    0.000000969
    3          6           0.000156061    0.000000000   -0.000240532
    4          1           0.000023059    0.000000000    0.000046018
    5          6          -0.000263861    0.000000000   -0.000052499
    6          1           0.000075964    0.000000000   -0.000033984
    7          1          -0.000056335    0.000000000    0.000020713
    8          6           0.000001151    0.000000000   -0.000159224
    9          7          -0.000159314    0.000000000    0.000295662
 -------------------------------------------------------------------
 Cartesian Forces:  Max     0.000295662 RMS     0.000118044

 GradGradGradGradGradGradGradGradGradGradGradGradGradGradGradGradGradGrad
 Berny optimization.
 Internal  Forces:  Max     0.000231290 RMS     0.000063763
 Search for a local minimum.
 Step number   1 out of a maximum of  48
 All quantities printed in internal units (Hartrees-Bohrs-Radians)
 Second derivative matrix not updated -- analytic derivatives used.
     Eigenvalues ---    0.00551   0.01447   0.02670   0.03346   0.06791
     Eigenvalues ---    0.07095   0.11195   0.12001   0.12434   0.13583
     Eigenvalues ---    0.26162   0.27558   0.39524   0.40845   0.41126
     Eigenvalues ---    0.41417   0.46889   0.49322   0.54334   0.55170
     Eigenvalues ---    0.681071000.000001000.000001000.000001000.00000
     Eigenvalues --- 1000.000001000.000001000.000001000.000001000.00000
     Eigenvalues --- 1000.000001000.000001000.000001000.000001000.00000
     Eigenvalues --- 1000.000001000.000001000.00000
 Angle between quadratic step and forces=  23.97 degrees.
 Linear search not attempted -- first point.
 Iteration  1 RMS(Cart)=  0.00014249 RMS(Int)=  0.00000002
 Iteration  2 RMS(Cart)=  0.00000002 RMS(Int)=  0.00000001
 Variable       Old X    -DE/DX   Delta X   Delta X   Delta X     New X
                                 (Linear)    (Quad)   (Total)
    R1        2.59711   0.00020   0.00000   0.00053   0.00053   2.59764
    R2        2.44372   0.00000   0.00000   0.00006   0.00006   2.44377
    R3        1.87798   0.00000   0.00000   0.00000   0.00000   1.87799
    R4        2.02900  -0.00005   0.00000  -0.00011  -0.00011   2.02888
    R5        2.56144   0.00001   0.00000   0.00005   0.00005   2.56149
    R6        2.59717  -0.00023   0.00000  -0.00057  -0.00057   2.59660
    R7        2.03173  -0.00008   0.00000  -0.00020  -0.00020   2.03153
    R8        2.03328  -0.00006   0.00000  -0.00014  -0.00014   2.03314
    R9        2.55356  -0.00009   0.00000  -0.00023  -0.00023   2.55333
    A1        1.84009  -0.00011   0.00000  -0.00025  -0.00025   1.83984
    A2        2.30592  -0.00001   0.00000  -0.00025  -0.00025   2.30567
    A3        2.14097   0.00004   0.00000   0.00029   0.00029   2.14126
    A4        1.83630  -0.00003   0.00000  -0.00004  -0.00004   1.83626
    A5        1.92580   0.00000   0.00000  -0.00005  -0.00005   1.92575
    A6        2.12369  -0.00003   0.00000  -0.00030  -0.00030   2.12339
    A7        2.23369   0.00003   0.00000   0.00035   0.00035   2.23404
    A8        2.19163  -0.00002   0.00000  -0.00009  -0.00009   2.19154
    A9        1.95683   0.00001   0.00000   0.00000   0.00000   1.95683
   A10        2.13473   0.00001   0.00000   0.00009   0.00009   2.13482
   A11        2.21446  -0.00007   0.00000  -0.00022  -0.00022   2.21424
   A12        2.20296  -0.00005   0.00000  -0.00011  -0.00011   2.20285
   A13        1.86576   0.00013   0.00000   0.00033   0.00033   1.86609
    D1        0.00000   0.00000   0.00000   0.00000   0.00000   0.00000
    D2        3.14159   0.00000   0.00000   0.00000   0.00000   3.14159
    D3        3.14159   0.00000   0.00000   0.00000   0.00000   3.14159
    D4        0.00000   0.00000   0.00000   0.00000   0.00000   0.00000
    D5        3.14159   0.00000   0.00000   0.00000   0.00000   3.14159
    D6        0.00000   0.00000   0.00000   0.00000   0.00000   0.00000
    D7        0.00000   0.00000   0.00000   0.00000   0.00000   0.00000
    D8        3.14159   0.00000   0.00000   0.00000   0.00000   3.14159
    D9        0.00000   0.00000   0.00000   0.00000   0.00000   0.00000
   D10        3.14159   0.00000   0.00000   0.00000   0.00000   3.14159
   D11        3.14159   0.00000   0.00000   0.00000   0.00000   3.14159
   D12        0.00000   0.00000   0.00000   0.00000   0.00000   0.00000
   D13        3.14159   0.00000   0.00000   0.00000   0.00000   3.14159
   D14        0.00000   0.00000   0.00000   0.00000   0.00000   0.00000
   D15        0.00000   0.00000   0.00000   0.00000   0.00000   0.00000
   D16        3.14159   0.00000   0.00000   0.00000   0.00000   3.14159
         Item               Value     Threshold  Converged?
 Maximum Force            0.000231     0.000450     YES
 RMS     Force            0.000064     0.000300     YES
 Maximum Displacement     0.000363     0.001800     YES
 RMS     Displacement     0.000143     0.001200     YES
 Predicted change in Energy=-2.091606D-07
 Optimization completed.
    -- Stationary point found.
                         ----------------------------
                         !   Optimized Parameters   !
                         ! (Angstroms and Degrees)  !
 ------------------------                            -------------------------
 ! Name  Definition              Value          Derivative Info.             !
 -----------------------------------------------------------------------------
 ! R1    R(1,5)                  1.3743         -DE/DX =    0.0002           !
 ! R2    R(1,8)                  1.2932         -DE/DX =    0.               !
 ! R3    R(2,9)                  0.9938         -DE/DX =    0.               !
 ! R4    R(3,4)                  1.0737         -DE/DX =    0.               !
 ! R5    R(3,5)                  1.3555         -DE/DX =    0.               !
 ! R6    R(3,9)                  1.3744         -DE/DX =   -0.0002           !
 ! R7    R(5,6)                  1.0751         -DE/DX =   -0.0001           !
 ! R8    R(7,8)                  1.076          -DE/DX =   -0.0001           !
 ! R9    R(8,9)                  1.3513         -DE/DX =   -0.0001           !
 ! A1    A(5,1,8)              105.4295         -DE/DX =   -0.0001           !
 ! A2    A(4,3,5)              132.1197         -DE/DX =    0.               !
 ! A3    A(4,3,9)              122.6683         -DE/DX =    0.               !
 ! A4    A(5,3,9)              105.212          -DE/DX =    0.               !
 ! A5    A(1,5,3)              110.3404         -DE/DX =    0.               !
 ! A6    A(1,5,6)              121.6784         -DE/DX =    0.               !
 ! A7    A(3,5,6)              127.9813         -DE/DX =    0.               !
 ! A8    A(1,8,7)              125.571          -DE/DX =    0.               !
 ! A9    A(1,8,9)              112.1181         -DE/DX =    0.               !
 ! A10   A(7,8,9)              122.311          -DE/DX =    0.               !
 ! A11   A(2,9,3)              126.8795         -DE/DX =   -0.0001           !
 ! A12   A(2,9,8)              126.2204         -DE/DX =   -0.0001           !
 ! A13   A(3,9,8)              106.9002         -DE/DX =    0.0001           !
 ! D1    D(8,1,5,3)              0.             -DE/DX =    0.               !
 ! D2    D(8,1,5,6)            180.             -DE/DX =    0.               !
 ! D3    D(5,1,8,7)            180.             -DE/DX =    0.               !
 ! D4    D(5,1,8,9)              0.             -DE/DX =    0.               !
 ! D5    D(4,3,5,1)            180.             -DE/DX =    0.               !
 ! D6    D(4,3,5,6)              0.             -DE/DX =    0.               !
 ! D7    D(9,3,5,1)              0.             -DE/DX =    0.               !
 ! D8    D(9,3,5,6)            180.             -DE/DX =    0.               !
 ! D9    D(4,3,9,2)              0.             -DE/DX =    0.               !
 ! D10   D(4,3,9,8)            180.             -DE/DX =    0.               !
 ! D11   D(5,3,9,2)            180.             -DE/DX =    0.               !
 ! D12   D(5,3,9,8)              0.             -DE/DX =    0.               !
 ! D13   D(1,8,9,2)            180.             -DE/DX =    0.               !
 ! D14   D(1,8,9,3)              0.             -DE/DX =    0.               !
 ! D15   D(7,8,9,2)              0.             -DE/DX =    0.               !
 ! D16   D(7,8,9,3)            180.             -DE/DX =    0.               !
 -----------------------------------------------------------------------------
 GradGradGradGradGradGradGradGradGradGradGradGradGradGradGradGradGradGrad

 1\1\GINC-PLUMBUM\Freq\RHF\Aug-CC-pVDZ\C3H4N2\RDJ3\27-Jul-2001\0\\#N GE
 OM=ALLCHECK GUESS=TCHECK RHF/AUG-CC-PVDZ FREQ\\1H imidazole C3H4N2 cas
 no=288324\\0,1\N,0.4997221006,0.,1.1126840702\H,0.4970295768,0.,-2.030
 8048114\C,-1.0155018229,0.,-0.5381258945\H,-1.8984784512,0.,-1.1490120
 287\C,-0.8399312324,0.,0.8059119258\H,-1.5945320349,0.,1.5717542393\H,
 2.1807182154,0.,-0.1612854173\C,1.1133399645,0.,-0.0256207509\N,0.2528
 237907,0.,-1.0674903078\\Version=IBM-RS6000-G98RevA.6\State=1-A'\HF=-2
 24.8489274\RMSD=2.777e-09\RMSF=1.180e-04\Dipole=-0.0827154,0.,-1.49665
 35\DipoleDeriv=-0.4906674,0.,-0.0325343,0.,-0.3430204,0.,0.0739599,0.,
 -0.6373265,0.1824958,0.,-0.0071508,0.,0.3389477,0.,-0.0128984,0.,0.263
 2104,-0.0040268,0.,-0.3235762,0.,-0.1738395,0.,-0.0759843,0.,0.1944049
 ,0.015022,0.,-0.0379737,0.,0.2152954,0.,-0.0487643,0.,0.0471903,0.2577
 178,0.,0.0244611,0.,-0.154578,0.,-0.069986,0.,0.136497,-0.0107063,0.,0
 .0611611,0.,0.1792823,0.,0.0735239,0.,0.0378993,-0.0200049,0.,0.035199
 5,0.,0.1619613,0.,0.0279458,0.,0.0701777,0.2090253,0.,0.0851344,0.,0.0
 591101,0.,-0.0158286,0.,0.6703852,-0.1388557,0.,0.1952789,0.,-0.283158
 9,0.,0.0480319,0.,-0.7824384\Polar=53.3515738,0.,32.9982199,-0.1063607
 ,0.,51.6754935\PolarDeriv=-11.8565708,0.,-0.5579591,-1.8951313,0.,4.56
 86909,0.,0.4537826,0.,0.,2.1962899,0.,7.7373293,0.,3.5345547,2.1837332
 ,0.,6.4175943,0.7680432,0.,0.133854,-1.5231491,0.,1.6021409,0.,0.07787
 71,0.,0.,-0.5296091,0.,-1.4844333,0.,-0.8467756,1.6134213,0.,-8.685441
 1,1.8459315,0.,-1.3225289,-1.418559,0.,-1.5633657,0.,-4.3234428,0.,0.,
 -4.2399401,0.,-10.0491152,0.,-7.2105905,-1.5067998,0.,-5.6207145,-6.60
 84014,0.,-0.6632076,-3.1522758,0.,-2.4256773,0.,0.4658438,0.,0.,0.5313
 282,0.,-2.8116404,0.,-0.1651808,-2.5822219,0.,-3.2444187,9.1051582,0.,
 -0.2414082,2.4525236,0.,-2.6578622,0.,-1.7147297,0.,0.,4.4653822,0.,10
 .7351142,0.,7.2915686,3.7186847,0.,5.4970191,-4.5206523,0.,-0.5688551,
 3.3723357,0.,-2.8541563,0.,-0.1829841,0.,0.,-0.3438788,0.,2.8858936,0.
 ,0.3551611,-2.8932991,0.,4.8837642,9.6749627,0.,0.9030585,-0.904299,0.
 ,1.0387881,0.,-0.1914618,0.,0.,0.0200735,0.,-0.8976981,0.,-0.0667461,1
 .527781,0.,-0.4028212,6.8521243,0.,2.9617819,0.1222281,0.,2.5038173,0.
 ,5.0149137,0.,0.,-0.5789287,0.,-6.3648329,0.,-1.6906262,-2.4343146,0.,
 1.0995354,-5.2605954,0.,-0.6447355,2.9463268,0.,-0.2123756,0.,0.400201
 2,0.,0.,-1.520717,0.,0.2493828,0.,-1.2013651,0.3730151,0.,0.0554824\Hy
 perPolar=51.6785557,0.,-40.2837229,0.,-17.9256941,0.,5.2535404,-33.589
 6948,0.,18.1142599\PG=CS [SG(C3H4N2)]\NImag=0\\0.55708100,0.,0.1215195
 9,-0.07310632,0.,0.69946762,-0.00281752,0.,-0.01021516,0.09651365,0.,0
 .00765291,0.,0.,0.01204928,-0.00433137,0.,-0.00229131,-0.11284526,0.,0
 .51410691,-0.03483349,0.,-0.01284016,0.01087641,0.,-0.00168496,0.82602
 296,0.,0.01997574,0.,0.,-0.00847341,0.,0.,0.13811889,-0.10315475,0.,-0
 .02142057,0.03065382,0.,-0.00035326,0.18986830,0.,0.85890233,0.0028912
 9,0.,0.00069280,0.00029612,0.,0.00017123,-0.28606386,0.,-0.15046231,0.
 29980978,0.,0.00834344,0.,0.,-0.00116415,0.,0.,-0.02973953,0.,0.,0.023
 50103,-0.00453569,0.,-0.00614642,-0.00133540,0.,0.00018235,-0.16097820
 ,0.,-0.18299614,0.16574550,0.,0.17234483,-0.28237396,0.,-0.04781756,-0
 .01002594,0.,0.00016697,-0.12346030,0.,-0.02480785,0.00614251,0.,-0.02
 500753,0.74256992,0.,-0.08335700,0.,0.,0.00225864,0.,0.,-0.08161669,0.
 ,0.,0.00074845,0.,0.,0.16436316,-0.04788590,0.,-0.13812067,0.00393414,
 0.,0.00190100,-0.04898468,0.,-0.46713957,0.00184914,0.,0.00352747,-0.1
 6967503,0.,0.92051187,-0.01844004,0.,0.02497492,0.00086352,0.,-0.00001
 261,0.01040338,0.,-0.00628566,-0.00041803,0.,0.00091618,-0.21832536,0.
 ,0.15890870,0.23193276,0.,-0.00388237,0.,0.,0.00236786,0.,0.,0.0015223
 5,0.,0.,-0.00302648,0.,0.,-0.03825257,0.,0.,0.02837979,-0.00845785,0.,
 0.01370142,0.00136747,0.,0.00026426,0.02369709,0.,-0.00674530,-0.00067
 828,0.,-0.00004184,0.16317219,0.,-0.24111704,-0.17375953,0.,0.23931004
 ,-0.00892399,0.,0.00228914,-0.00057467,0.,-0.00057005,0.00139084,0.,-0
 .00425252,-0.00041704,0.,0.00043940,0.00179298,0.,0.00344514,-0.000374
 64,0.,-0.00023735,0.40282261,0.,-0.00293268,0.,0.,-0.00170502,0.,0.,0.
 00331583,0.,0.,0.00188510,0.,0.,0.00889098,0.,0.,0.00088315,0.,0.,0.02
 871581,0.03394614,0.,0.00246813,0.00083789,0.,0.00054071,-0.00086652,0
 .,-0.00685902,-0.00118457,0.,0.00108921,0.00329595,0.,-0.00499519,0.00
 154293,0.,0.00073299,-0.04125155,0.,0.07120911,-0.21443661,0.,0.153310
 34,0.02273613,0.,0.01494833,-0.10416369,0.,0.00261875,-0.00353006,0.,0
 .00470896,-0.09078092,0.,0.02097766,-0.00716982,0.,-0.00414191,-0.3818
 8822,0.,0.03774533,1.02574951,0.,-0.09449913,0.,0.,-0.00923622,0.,0.,0
 .01799894,0.,0.,0.00307156,0.,0.,0.01169538,0.,0.,0.00544359,0.,0.,-0.
 04018825,0.,0.,0.18051733,0.15640287,0.,-0.41985557,-0.01792224,0.,-0.
 01140626,-0.05468283,0.,-0.01692629,0.00591490,0.,-0.00540552,0.100268
 17,0.,0.01302970,-0.00312720,0.,0.00054463,0.03415609,0.,-0.07370760,-
 0.11186312,0.,0.75943966,0.00185332,0.,-0.03728799,-0.11786768,0.,0.10
 415772,-0.30017225,0.,0.06582221,-0.01871071,0.,0.02004678,-0.02553893
 ,0.,0.07743084,0.00152824,0.,-0.00096184,-0.01382787,0.,-0.03406561,-0
 .24651632,0.,-0.10914665,0.71925220,0.,0.02717949,0.,0.,-0.00374989,0.
 ,0.,-0.06110210,0.,0.,-0.00361942,0.,0.,0.01526965,0.,0.,0.00656467,0.
 ,0.,0.00113509,0.,0.,-0.07480322,0.,0.,0.09312572,0.05112287,0.,-0.127
 80264,0.10552474,0.,-0.50294439,0.06647197,0.,-0.15646217,-0.02204843,
 0.,0.01744606,0.00040468,0.,-0.08759756,-0.00315773,0.,-0.00664915,0.0
 0598170,0.,0.00952166,-0.11830434,0.,-0.24571275,-0.08599546,0.,1.1002
 0093\\-0.00023469,0.,-0.00012288,0.00001142,0.,-0.00000097,-0.00015606
 ,0.,0.00024053,-0.00002306,0.,-0.00004602,0.00026386,0.,0.00005250,-0.
 00007596,0.,0.00003398,0.00005634,0.,-0.00002071,-0.00000115,0.,0.0001
 5922,0.00015931,0.,-0.00029566\\\@

 THE CHYMISTS ARE A STRANGE CLASS OF MORTALS IMPELLED
 BY AN ALMOST INSANE IMPULSE TO SEEK THEIR PLEASURE
 AMONG SMOKE AND VAPOR, SOOT AND FLAME, POISONS AND
 POVERTY; YET AMONG ALL THESE EVILS I SEEM TO LIVE
 SO SWEETLY, THAT I MAY DIE IF I WOULD CHANGE PLACES
 WITH THE PERSIAN KING.
   --  JOHANN JOACHIM BECHER, 1635-1682
 ACTA LABORATORII CHYMICA MONACENSIS, 1669
 Job cpu time:  0 days  1 hours 13 minutes 59.2 seconds.
 File lengths (MBytes):  RWF=   35 Int=    0 D2E=    0 Chk=    4 Scr=    1
 Normal termination of Gaussian 98.
