 Gaussian 98, Revision A.6,
 Gaussian 98:  IBM-RS6000-G98RevA.6 19-Oct-1998

 --------------------
 #HF/LANL2DZ opt freq
 --------------------

 --------------------------------
 1H imidazole C3H4N2 casno=288324
 --------------------------------
 Symbolic Z-matrix:
 Charge =  0 Multiplicity = 1

 SCF Done:  E(RHF) =  -224.676729174     A.U. after   15 cycles
 SCF Done:  E(RHF) =  -224.731242911     A.U. after   13 cycles
 SCF Done:  E(RHF) =  -224.738268861     A.U. after   13 cycles
 SCF Done:  E(RHF) =  -224.738676504     A.U. after   11 cycles
 SCF Done:  E(RHF) =  -224.738824718     A.U. after   12 cycles
 SCF Done:  E(RHF) =  -224.738832988     A.U. after   10 cycles
 Optimization completed.
    -- Stationary point found.
 Normal termination of Gaussian 98.

 ----------------------------------------------
 #N Geom=AllCheck Guess=TCheck RHF/LANL2DZ Freq
 ----------------------------------------------

 1H imidazole C3H4N2 casno=288324
 --------------------------------
 Redundant internal coordinates taken from checkpointfile:
 /wrk/rdj3/Gau-17318.chk
 Charge =  0 Multiplicity = 1

                         Standard orientation:
 ---------------------------------------------------------------------
 Center     Atomic     Atomic              Coordinates (Angstroms)
 Number     Number      Type              X           Y           Z
 ---------------------------------------------------------------------
    1          7             0       -0.744925   -0.972826    0.000000
    2          1             0       -0.007492    2.098842    0.000000
    3          6             0        1.121849    0.291021    0.000000
    4          1             0        2.114489    0.674176    0.000000
    5          6             0        0.644978   -0.989183    0.000000
    6          1             0        1.190841   -1.902500    0.000000
    7          1             0       -2.098115    0.651000    0.000000
    8          6             0       -1.097702    0.287632    0.000000
    9          7             0        0.000000    1.107349    0.000000
 ---------------------------------------------------------------------

 SCF Done:  E(RHF) =  -224.738832988     A.U. after    1 cycles

  The electronic state is 1-A'.
 Alpha  occ. eigenvalues --  -15.62329 -15.55564 -11.31063 -11.28121 -11.25634
 Alpha  occ. eigenvalues --   -1.36241  -1.17978  -1.02654  -0.83853  -0.80744
 Alpha  occ. eigenvalues --   -0.77303  -0.61809  -0.61299  -0.60531  -0.58160
 Alpha  occ. eigenvalues --   -0.42635  -0.40204  -0.33464
 Alpha virt. eigenvalues --    0.15838   0.21213   0.21990   0.27099   0.28070
 Alpha virt. eigenvalues --    0.30672   0.32284   0.38429   0.39235   0.44837
 Alpha virt. eigenvalues --    0.47247   0.50884   0.51742   0.54936   0.55386

  Exact polarizability:  44.369  -0.543  44.634   0.000   0.000  18.251
 Approx polarizability:  40.211   0.509  43.841   0.000   0.000  16.823

                     1                      2                      3
                    A"                     A"                     A"
 Frequencies --   683.9604               718.3691               734.3452
 Red. masses --     3.0282                 1.1938                 2.7608
 Frc consts  --     0.8346                 0.3630                 0.8772
 IR Inten    --    19.9247               220.9409                 1.9774
 Raman Activ --     2.4075                 0.4107                 0.9491

                     4                      5                      6
                    A"                     A"                     A'
 Frequencies --   870.5742               974.3823               998.9045
 Red. masses --     1.2480                 1.4325                 5.8281
 Frc consts  --     0.5573                 0.8013                 3.4263
 IR Inten    --    72.2736                19.1872                 9.8576
 Raman Activ --     2.5519                 4.7205                 3.6153

                     7                      8                      9
                    A"                     A'                     A'
 Frequencies --  1028.6821              1030.0013              1142.0106
 Red. masses --     1.4147                 4.8527                 1.8425
 Frc consts  --     0.8820                 3.0333                 1.4158
 IR Inten    --     0.5268                 3.3748                75.2373
 Raman Activ --     4.3308                 3.0827                 3.3628

                    10                     11                     12
                    A'                     A'                     A'
 Frequencies --  1184.4286              1207.3194              1259.4986
 Red. masses --     1.8482                 4.5171                 1.3930
 Frc consts  --     1.5276                 3.8793                 1.3020
 IR Inten    --    20.7241                 2.4797                 1.4661
 Raman Activ --     2.6198                20.6758                14.9439

                    13                     14                     15
                    A'                     A'                     A'
 Frequencies --  1393.4900              1478.0254              1548.0221
 Red. masses --     1.4091                 2.9397                 2.2397
 Frc consts  --     1.6121                 3.7837                 3.1622
 IR Inten    --     1.0241                 8.4876                25.8648
 Raman Activ --    11.2467                26.6989                11.5151

                    16                     17                     18
                    A'                     A'                     A'
 Frequencies --  1622.9183              1701.1804              3492.3496
 Red. masses --     3.0864                 2.8830                 1.0931
 Frc consts  --     4.7896                 4.9158                 7.8553
 IR Inten    --    22.7597                24.6306                 3.1765
 Raman Activ --    34.7497                 3.3958                49.9233

                    19                     20                     21
                    A'                     A'                     A'
 Frequencies --  3500.1854              3520.0556              3953.9428
 Red. masses --     1.1009                 1.1122                 1.0839
 Frc consts  --     7.9467                 8.1196                 9.9839
 IR Inten    --     5.2206                 4.1299               104.9925
 Raman Activ --    40.5995               119.6607                76.0630

 - Thermochemistry -
 -------------------
 Temperature   298.150 Kelvin.  Pressure   1.00000 Atm.
 Atom  1 has atomic number  7 and mass  14.00307

 Molecular mass:    68.03745 amu.
 Principal axes and moments of inertia in atomic units:
                           1         2         3
     EIGENVALUES --   187.39867 190.37922 377.77789
           X            0.48748   0.87313   0.00000
           Y            0.87313  -0.48748   0.00000
           Z            0.00000   0.00000   1.00000
 THIS MOLECULE IS AN ASYMMETRIC TOP.
 ROTATIONAL SYMMETRY NUMBER  1.
 ROTATIONAL TEMPERATURES (KELVIN)      0.46219     0.45495     0.22927
 ROTATIONAL CONSTANTS (GHZ)            9.63049     9.47972     4.77725
 Zero-point vibrational energy     203620.3 (Joules/Mol)
                                   48.66641 (Kcal/Mol)
 VIBRATIONAL TEMPERATURES:    984.06  1033.57  1056.55  1252.55  1401.91
          (KELVIN)           1437.19  1480.04  1481.93  1643.09  1704.12
                             1737.05  1812.13  2004.91  2126.54  2227.25
                             2335.00  2447.61  5024.68  5035.96  5064.55
                             5688.81

 Zero-point correction=                           0.077555 (Hartree/Particle)
 Thermal correction to Energy=                    0.081006
 Thermal correction to Enthalpy=                  0.081950
 Thermal correction to Gibbs Free Energy=         0.051396
 Sum of electronic and zero-point Energies=           -224.661278
 Sum of electronic and thermal Energies=              -224.657827
 Sum of electronic and thermal Enthalpies=            -224.656883
 Sum of electronic and thermal Free Energies=         -224.687437

                     E (Thermal)             CV                S
                      KCAL/MOL        CAL/MOL-KELVIN    CAL/MOL-KELVIN
 TOTAL                   50.832             11.567             64.306
 ELECTRONIC               0.000              0.000              0.000
 TRANSLATIONAL            0.889              2.981             38.570
 ROTATIONAL               0.889              2.981             24.115
 VIBRATIONAL             49.055              5.606              1.621
                       Q            LOG10(Q)             LN(Q)
 TOTAL BOT       0.228839D-23        -23.640471        -54.434195
 TOTAL V=0       0.107659D+13         12.032048         27.704816
 VIB (BOT)       0.249624D-35        -35.602714        -81.978278
 VIB (V=0)       0.117437D+01          0.069805          0.160733
 ELECTRONIC      0.100000D+01          0.000000          0.000000
 TRANSLATIONAL   0.220588D+08          7.343582         16.909224
 ROTATIONAL      0.415586D+05          4.618661         10.634859
 ***** Axes restored to original set *****
 -------------------------------------------------------------------
 Center     Atomic                   Forces (Hartrees/Bohr)
 Number     Number              X              Y              Z
 -------------------------------------------------------------------
    1          7           0.000315507    0.000000000    0.000129042
    2          1          -0.000027971    0.000000000    0.000005517
    3          6           0.000090129    0.000000000   -0.000241338
    4          1          -0.000014248    0.000000000   -0.000004735
    5          6          -0.000164376    0.000000000   -0.000217654
    6          1           0.000047625    0.000000000    0.000013136
    7          1           0.000010399    0.000000000    0.000025979
    8          6          -0.000174784    0.000000000   -0.000238088
    9          7          -0.000082281    0.000000000    0.000528141
 -------------------------------------------------------------------
 Cartesian Forces:  Max     0.000528141 RMS     0.000153256

 GradGradGradGradGradGradGradGradGradGradGradGradGradGradGradGradGradGrad
 Berny optimization.
 Internal  Forces:  Max     0.000260813 RMS     0.000090229
 Search for a local minimum.
 Step number   1 out of a maximum of  48
 All quantities printed in internal units (Hartrees-Bohrs-Radians)
 Second derivative matrix not updated -- analytic derivatives used.
     Eigenvalues ---    0.00915   0.01611   0.02704   0.03382   0.07152
     Eigenvalues ---    0.07468   0.11592   0.12268   0.12851   0.13519
     Eigenvalues ---    0.27385   0.28216   0.37828   0.42826   0.42954
     Eigenvalues ---    0.43065   0.46006   0.48984   0.55552   0.56242
     Eigenvalues ---    0.654571000.000001000.000001000.000001000.00000
     Eigenvalues --- 1000.000001000.000001000.000001000.000001000.00000
     Eigenvalues --- 1000.000001000.000001000.000001000.000001000.00000
     Eigenvalues --- 1000.000001000.000001000.00000
 Angle between quadratic step and forces=  22.84 degrees.
 Linear search not attempted -- first point.
 Iteration  1 RMS(Cart)=  0.00024195 RMS(Int)=  0.00000005
 Iteration  2 RMS(Cart)=  0.00000006 RMS(Int)=  0.00000002
 Variable       Old X    -DE/DX   Delta X   Delta X   Delta X     New X
                                 (Linear)    (Quad)   (Total)
    R1        2.62672   0.00023   0.00000   0.00063   0.00063   2.62734
    R2        2.47345  -0.00008   0.00000   0.00004   0.00004   2.47349
    R3        1.87370  -0.00001   0.00000  -0.00001  -0.00001   1.87369
    R4        2.01071   0.00001   0.00000   0.00001   0.00001   2.01072
    R5        2.58162  -0.00004   0.00000  -0.00001  -0.00001   2.58161
    R6        2.62184  -0.00026   0.00000  -0.00054  -0.00054   2.62130
    R7        2.01068  -0.00002   0.00000  -0.00005  -0.00005   2.01064
    R8        2.01135   0.00001   0.00000   0.00002   0.00002   2.01137
    R9        2.58891  -0.00022   0.00000  -0.00065  -0.00065   2.58827
    A1        1.85546  -0.00016   0.00000  -0.00043  -0.00043   1.85503
    A2        2.29575   0.00006   0.00000   0.00010   0.00010   2.29584
    A3        2.14417   0.00007   0.00000   0.00023   0.00023   2.14439
    A4        1.84327  -0.00013   0.00000  -0.00033  -0.00033   1.84295
    A5        1.91560   0.00006   0.00000   0.00013   0.00013   1.91574
    A6        2.12127  -0.00007   0.00000  -0.00051  -0.00051   2.12076
    A7        2.24632   0.00002   0.00000   0.00037   0.00037   2.24669
    A8        2.19210  -0.00004   0.00000  -0.00025  -0.00025   2.19185
    A9        1.93932   0.00002   0.00000   0.00005   0.00005   1.93937
   A10        2.15177   0.00002   0.00000   0.00020   0.00020   2.15197
   A11        2.20740  -0.00013   0.00000  -0.00044  -0.00044   2.20696
   A12        2.20466  -0.00008   0.00000  -0.00013  -0.00013   2.20453
   A13        1.87112   0.00022   0.00000   0.00058   0.00058   1.87170
    D1        0.00000   0.00000   0.00000   0.00000   0.00000   0.00000
    D2        3.14159   0.00000   0.00000   0.00000   0.00000   3.14159
    D3        3.14159   0.00000   0.00000   0.00000   0.00000   3.14159
    D4        0.00000   0.00000   0.00000   0.00000   0.00000   0.00000
    D5        3.14159   0.00000   0.00000   0.00000   0.00000   3.14159
    D6        0.00000   0.00000   0.00000   0.00000   0.00000   0.00000
    D7        0.00000   0.00000   0.00000   0.00000   0.00000   0.00000
    D8        3.14159   0.00000   0.00000   0.00000   0.00000   3.14159
    D9        0.00000   0.00000   0.00000   0.00000   0.00000   0.00000
   D10        3.14159   0.00000   0.00000   0.00000   0.00000   3.14159
   D11        3.14159   0.00000   0.00000   0.00000   0.00000   3.14159
   D12        0.00000   0.00000   0.00000   0.00000   0.00000   0.00000
   D13        3.14159   0.00000   0.00000   0.00000   0.00000   3.14159
   D14        0.00000   0.00000   0.00000   0.00000   0.00000   0.00000
   D15        0.00000   0.00000   0.00000   0.00000   0.00000   0.00000
   D16        3.14159   0.00000   0.00000   0.00000   0.00000   3.14159
         Item               Value     Threshold  Converged?
 Maximum Force            0.000261     0.000450     YES
 RMS     Force            0.000090     0.000300     YES
 Maximum Displacement     0.000709     0.001800     YES
 RMS     Displacement     0.000242     0.001200     YES
 Predicted change in Energy=-4.081919D-07
 Optimization completed.
    -- Stationary point found.
                         ----------------------------
                         !   Optimized Parameters   !
                         ! (Angstroms and Degrees)  !
 ------------------------                            -------------------------
 ! Name  Definition              Value          Derivative Info.             !
 -----------------------------------------------------------------------------
 ! R1    R(1,5)                  1.39           -DE/DX =    0.0002           !
 ! R2    R(1,8)                  1.3089         -DE/DX =   -0.0001           !
 ! R3    R(2,9)                  0.9915         -DE/DX =    0.               !
 ! R4    R(3,4)                  1.064          -DE/DX =    0.               !
 ! R5    R(3,5)                  1.3661         -DE/DX =    0.               !
 ! R6    R(3,9)                  1.3874         -DE/DX =   -0.0003           !
 ! R7    R(5,6)                  1.064          -DE/DX =    0.               !
 ! R8    R(7,8)                  1.0644         -DE/DX =    0.               !
 ! R9    R(8,9)                  1.37           -DE/DX =   -0.0002           !
 ! A1    A(5,1,8)              106.3101         -DE/DX =   -0.0002           !
 ! A2    A(4,3,5)              131.5365         -DE/DX =    0.0001           !
 ! A3    A(4,3,9)              122.8517         -DE/DX =    0.0001           !
 ! A4    A(5,3,9)              105.6118         -DE/DX =   -0.0001           !
 ! A5    A(1,5,3)              109.7559         -DE/DX =    0.0001           !
 ! A6    A(1,5,6)              121.5397         -DE/DX =   -0.0001           !
 ! A7    A(3,5,6)              128.7044         -DE/DX =    0.               !
 ! A8    A(1,8,7)              125.5978         -DE/DX =    0.               !
 ! A9    A(1,8,9)              111.1149         -DE/DX =    0.               !
 ! A10   A(7,8,9)              123.2873         -DE/DX =    0.               !
 ! A11   A(2,9,3)              126.4749         -DE/DX =   -0.0001           !
 ! A12   A(2,9,8)              126.3179         -DE/DX =   -0.0001           !
 ! A13   A(3,9,8)              107.2072         -DE/DX =    0.0002           !
 ! D1    D(8,1,5,3)              0.             -DE/DX =    0.               !
 ! D2    D(8,1,5,6)            180.             -DE/DX =    0.               !
 ! D3    D(5,1,8,7)            180.             -DE/DX =    0.               !
 ! D4    D(5,1,8,9)              0.             -DE/DX =    0.               !
 ! D5    D(4,3,5,1)            180.             -DE/DX =    0.               !
 ! D6    D(4,3,5,6)              0.             -DE/DX =    0.               !
 ! D7    D(9,3,5,1)              0.             -DE/DX =    0.               !
 ! D8    D(9,3,5,6)            180.             -DE/DX =    0.               !
 ! D9    D(4,3,9,2)              0.             -DE/DX =    0.               !
 ! D10   D(4,3,9,8)            180.             -DE/DX =    0.               !
 ! D11   D(5,3,9,2)            180.             -DE/DX =    0.               !
 ! D12   D(5,3,9,8)              0.             -DE/DX =    0.               !
 ! D13   D(1,8,9,2)            180.             -DE/DX =    0.               !
 ! D14   D(1,8,9,3)              0.             -DE/DX =    0.               !
 ! D15   D(7,8,9,2)              0.             -DE/DX =    0.               !
 ! D16   D(7,8,9,3)            180.             -DE/DX =    0.               !
 -----------------------------------------------------------------------------
 GradGradGradGradGradGradGradGradGradGradGradGradGradGradGradGradGradGrad

 1\1\GINC-FERRUM\Freq\RHF\LANL2DZ\C3H4N2\RDJ3\05-Sep-2000\0\\#N GEOM=AL
 LCHECK GUESS=TCHECK RHF/LANL2DZ FREQ\\1H imidazole C3H4N2 casno=288324
 \\0,1\N,0.5005920074,0.,1.1183519795\H,0.4911411737,0.,-2.0405815442\C
 ,-1.0245415903,0.,-0.5418047393\H,-1.9021153604,0.,-1.1434747532\C,-0.
 855644387,0.,0.8138500839\H,-1.5973527588,0.,1.5767279352\H,2.19167773
 11,0.,-0.149781885\C,1.1344437406,0.,-0.0268288176\N,0.2552797976,0.,-
 1.0775218245\\Version=IBM-RS6000-G98RevA.6\State=1-A'\HF=-224.738833\R
 MSD=1.693e-09\RMSF=1.533e-04\Dipole=-0.1683356,0.,-1.6782647\DipoleDer
 iv=-0.4386084,0.,0.0091877,0.,-0.3847849,0.,0.0914179,0.,-0.6000317,0.
 2200069,0.,-0.0082058,0.,0.4373604,0.,-0.0025217,0.,0.2714453,-0.01193
 91,0.,-0.3420332,0.,-0.1627268,0.,-0.0950786,0.,0.2629983,0.0212154,0.
 ,-0.0539862,0.,0.2457405,0.,-0.0768349,0.,0.0573423,0.2508887,0.,-0.01
 55235,0.,-0.1679933,0.,-0.1528362,0.,0.0895955,0.0007643,0.,0.0701865,
 0.,0.209526,0.,0.0988267,0.,0.041728,-0.0275258,0.,0.0358334,0.,0.1915
 735,0.,0.0403998,0.,0.0925087,0.1837316,0.,0.0882876,0.,0.0621491,0.,-
 0.0282667,0.,0.6636353,-0.1985335,0.,0.2162536,0.,-0.4308446,0.,0.1248
 938,0.,-0.8792218\Polar=44.6266855,0.,18.2512553,-0.5446752,0.,44.3764
 885\PolarDeriv=-11.1184218,0.,-0.3072596,-0.2559733,0.,6.4823097,0.,-0
 .2926504,0.,0.,2.873699,0.,6.9735659,0.,1.1779488,2.7259596,0.,7.54131
 11,0.7695608,0.,-0.1154501,-1.6905307,0.,1.2397937,0.,0.298902,0.,0.,-
 1.0420027,0.,-0.9390785,0.,-0.0744144,1.7306015,0.,-8.6493721,-0.51027
 56,0.,0.7176049,-1.9064596,0.,-2.0188609,0.,-5.7101861,0.,0.,-6.394416
 5,0.,-8.1015783,0.,-1.4252541,-3.2318281,0.,-4.4193969,-6.4881156,0.,-
 0.1288467,-2.9939421,0.,-2.1435508,0.,0.4770711,0.,0.,0.3962418,0.,-2.
 9322451,0.,0.0565039,-2.6681386,0.,-3.1394816,7.9285423,0.,0.9130449,3
 .962968,0.,-2.8920721,0.,-1.2817477,0.,0.,6.0901725,0.,8.2017938,0.,1.
 1342215,2.9059644,0.,3.1702225,-4.3272559,0.,-0.3686753,3.2876502,0.,-
 2.824758,0.,-0.4151196,0.,0.,0.0077089,0.,2.7092756,0.,-0.0549946,-2.7
 836947,0.,5.0350967,9.7004133,0.,0.0153069,-0.6330659,0.,0.9516047,0.,
 -0.5060114,0.,0.,0.0196473,0.,-0.898332,0.,0.1490105,1.7190591,0.,-0.3
 781007,7.5293827,0.,-0.2481814,-0.7041444,0.,0.6658035,0.,7.3554342,0.
 ,0.,-1.5177114,0.,-7.1857376,0.,-0.8789884,-1.0895148,0.,1.685311,-3.4
 838303,0.,-0.4775436,0.933498,0.,0.5397302,0.,0.0743078,0.,0.,-0.43333
 87,0.,2.1723363,0.,-0.0840331,0.6915917,0.,-0.8455901\HyperPolar=44.92
 98507,0.,5.5028481,0.,-15.1531312,0.,-5.5418258,-23.8717919,0.,-30.068
 2127\PG=CS [SG(C3H4N2)]\NImag=0\\0.55234992,0.,0.12468874,-0.07859588,
 0.,0.66379061,-0.00373294,0.,-0.00850500,0.10050557,0.,0.00693968,0.,0
 .,0.01788397,-0.00360060,0.,-0.00111472,-0.11077407,0.,0.52734946,-0.0
 3702272,0.,-0.02181092,0.00731459,0.,-0.00643586,0.83596634,0.,0.02219
 649,0.,0.,-0.00478225,0.,0.,0.15433411,-0.09750277,0.,-0.02718288,0.03
 489631,0.,0.00101539,0.20582187,0.,0.86680166,0.00238793,0.,0.00124188
 ,0.00013414,0.,0.00022696,-0.30110569,0.,-0.16017491,0.31269121,0.,0.0
 0826969,0.,0.,-0.00124558,0.,0.,-0.03495377,0.,0.,0.02601813,-0.003737
 35,0.,-0.00523710,-0.00113729,0.,0.00035923,-0.17155046,0.,-0.18863831
 ,0.17165379,0.,0.17868806,-0.27221131,0.,-0.02415854,-0.00975872,0.,-0
 .00053480,-0.12665596,0.,-0.03183496,0.00671883,0.,-0.02590709,0.75133
 395,0.,-0.08672004,0.,0.,0.00323209,0.,0.,-0.08941189,0.,0.,0.00265036
 ,0.,0.,0.17343935,-0.04836980,0.,-0.13005333,0.00279633,0.,0.00183067,
 -0.04248984,0.,-0.45785621,0.00562286,0.,0.00284689,-0.19229648,0.,0.9
 2353903,-0.01639732,0.,0.02494804,0.00080918,0.,0.00003916,0.01071743,
 0.,-0.00996783,-0.00011096,0.,0.00095133,-0.22971001,0.,0.17183155,0.2
 4055823,0.,-0.00421550,0.,0.,0.00193641,0.,0.,0.00275672,0.,0.,-0.0034
 3092,0.,0.,-0.04071541,0.,0.,0.02986079,-0.01271136,0.,0.01360015,0.00
 121472,0.,0.00028452,0.02440907,0.,-0.00599874,-0.00070847,0.,-0.00013
 945,0.17736471,0.,-0.25553711,-0.18303020,0.,0.25281940,-0.00606016,0.
 ,-0.00204356,-0.00067917,0.,-0.00063254,0.00186176,0.,-0.00279883,-0.0
 0049897,0.,0.00024686,0.00182771,0.,0.00208720,-0.00046692,0.,-0.00014
 007,0.42436856,0.,-0.00330770,0.,0.,-0.00159701,0.,0.,0.00326174,0.,0.
 ,0.00165872,0.,0.,0.00941747,0.,0.,0.00066840,0.,0.,0.02897641,0.03363
 502,0.,0.00176324,0.00072083,0.,0.00042107,-0.00078693,0.,-0.00693456,
 -0.00099601,0.,0.00112539,0.00299221,0.,-0.00453245,0.00147788,0.,0.00
 070110,-0.04110731,0.,0.07189898,-0.21525645,0.,0.14118974,0.02015297,
 0.,0.01665950,-0.10356268,0.,-0.00281456,-0.00241363,0.,0.00534265,-0.
 09483130,0.,0.02752230,-0.00647250,0.,-0.00501908,-0.41019170,0.,0.040
 37937,1.04526714,0.,-0.09541683,0.,0.,-0.00505349,0.,0.,0.01957257,0.,
 0.,0.00346427,0.,0.,0.01239371,0.,0.,0.00622581,0.,0.,-0.04034961,0.,0
 .,0.18273044,0.17205209,0.,-0.38753958,-0.02554713,0.,-0.01018092,-0.0
 4463082,0.,-0.01896267,0.00503918,0.,-0.00563870,0.08557686,0.,0.00484
 762,-0.00241229,0.,0.00003039,0.03706575,0.,-0.07196172,-0.12958169,0.
 ,0.72543272,-0.00405696,0.,-0.03226575,-0.11474561,0.,0.10505226,-0.28
 751306,0.,0.06437568,-0.01780286,0.,0.02413755,-0.02671318,0.,0.073295
 88,0.00107288,0.,-0.00137933,-0.01016111,0.,-0.03631506,-0.23269185,0.
 ,-0.09756195,0.69261174,0.,0.02756547,0.,0.,-0.01731383,0.,0.,-0.07297
 373,0.,0.,-0.00243090,0.,0.,0.01571435,0.,0.,0.00691369,0.,0.,0.001271
 58,0.,0.,-0.08356687,0.,0.,0.12482022,0.03883065,0.,-0.12802638,0.1063
 3530,0.,-0.51996471,0.05747389,0.,-0.16224368,-0.02190528,0.,0.0166340
 0,0.00879809,0.,-0.08508512,-0.00383765,0.,-0.00576026,0.00732249,0.,0
 .00751894,-0.09367822,0.,-0.23602713,-0.09933927,0.,1.11295435\\-0.000
 31551,0.,-0.00012904,0.00002797,0.,-0.00000552,-0.00009013,0.,0.000241
 34,0.00001425,0.,0.00000474,0.00016438,0.,0.00021765,-0.00004763,0.,-0
 .00001314,-0.00001040,0.,-0.00002598,0.00017478,0.,0.00023809,0.000082
 28,0.,-0.00052814\\\@

 COLLEGE PROFESSOR: SOMEONE WHO TALKS IN OTHER PEOPLE'S SLEEP.
 Job cpu time:  0 days  0 hours  1 minutes  7.8 seconds.
 File lengths (MBytes):  RWF=   17 Int=    0 D2E=    0 Chk=    8 Scr=    1
 Normal termination of Gaussian 98.
