 Gaussian 03, Revision C.02,
 Gaussian 03:  AM64L-G03RevC.02 12-Jun-2004

 ------------------------
 #HF/aug-cc-pVTZ opt freq
 ------------------------

 ----------------------------------------------------
 1himidaz 1H-Imidazole casno=288324 method=1 basis=18
 ----------------------------------------------------
 Symbolic Z-matrix:
 Charge =  0 Multiplicity = 1

 SCF Done:  E(RHF) =  -224.900120779     A.U. after   13 cycles
 SCF Done:  E(RHF) =  -224.900121626     A.U. after    8 cycles
 Optimization completed.
    -- Stationary point found.
 Normal termination of Gaussian 03 at Wed Jul 13 20:37:08 2005.

 ------------------------------------------------------------------
 #N Geom=AllCheck Guess=Read SCRF=Check GenChk RHF/Aug-CC-pVTZ Freq
 ------------------------------------------------------------------

 1himidaz 1H-Imidazole casno=288324 method=1 basis=18
 ----------------------------------------------------
 Redundant internal coordinates taken from checkpoint file:
 /scratch/Gau-16933.chk
 Charge =  0 Multiplicity = 1

                         Standard orientation:
 ---------------------------------------------------------------------
 Center     Atomic     Atomic              Coordinates (Angstroms)
 Number     Number      Type              X           Y           Z
 ---------------------------------------------------------------------
    1          7             0       -0.740323   -0.961753    0.000000
    2          1             0       -0.013407    2.081343    0.000000
    3          6             0        1.107714    0.286463    0.000000
    4          1             0        2.100756    0.674793    0.000000
    5          6             0        0.630172   -0.973606    0.000000
    6          1             0        1.182834   -1.887035    0.000000
    7          1             0       -2.074386    0.656835    0.000000
    8          6             0       -1.073476    0.280471    0.000000
    9          7             0        0.000000    1.092338    0.000000
 ---------------------------------------------------------------------

 SCF Done:  E(RHF) =  -224.900121626     A.U. after    1 cycles

 The electronic state is 1-A'.
 Alpha  occ. eigenvalues --  -15.61810 -15.53900 -11.28958 -11.25608 -11.23738
 Alpha  occ. eigenvalues --   -1.35447  -1.17405  -1.01621  -0.83328  -0.80523
 Alpha  occ. eigenvalues --   -0.76645  -0.61514  -0.60691  -0.60519  -0.57452
 Alpha  occ. eigenvalues --   -0.43604  -0.40287  -0.32688
 Alpha virt. eigenvalues --    0.02120   0.03453   0.04140   0.05239   0.07161
 Alpha virt. eigenvalues --    0.08504   0.10420   0.10558   0.10909   0.11173
 Alpha virt. eigenvalues --    0.11734   0.12677   0.13067   0.14103   0.15485

 Mulliken atomic charges:
              1
     1  N   -0.463052
     2  H    0.107561
     3  C   -0.525200
     4  H    0.567328
     5  C   -0.312947
     6  H    0.572128
     7  H    0.614239
     8  C   -0.598145
     9  N    0.038089
 Sum of Mulliken charges=   0.00000

 Dipole moment (field-independent basis, Debye):
    X=     1.0743    Y=     3.6352    Z=     0.0000  Tot=     3.7906
 Quadrupole moment (field-independent basis, Debye-Ang):
   XX=   -26.7494   YY=   -25.9871   ZZ=   -32.3263
   XY=    -3.5392   XZ=     0.0000   YZ=     0.0000

  Exact polarizability:  52.896  -0.530  51.492   0.000   0.000  32.767
 Approx polarizability:  48.967   0.000  50.053   0.000   0.000  33.624

                     1                      2                      3
                    A"                     A"                     A"
 Frequencies --   553.3770               690.5710               729.7971
 Red. masses --     1.4291                 2.1926                 2.8239
 Frc consts  --     0.2578                 0.6161                 0.8861
 IR Inten    --   115.9997                 4.8822                12.0183
 Raman Activ --     0.1411                 0.3270                 0.2567

                     4                      5                      6
                    A"                     A'                     A"
 Frequencies --   843.6065               980.4541               981.2472
 Red. masses --     1.2472                 5.5441                 1.4269
 Frc consts  --     0.5230                 3.1400                 0.8095
 IR Inten    --    61.8869                 6.7801                20.7702
 Raman Activ --     2.0646                 0.8159                 1.6505

                     7                      8                      9
                    A"                     A'                     A'
 Frequencies --  1012.2932              1018.3948              1143.3914
 Red. masses --     1.3899                 4.5661                 1.7468
 Frc consts  --     0.8392                 2.7901                 1.3455
 IR Inten    --     0.0001                 1.2982                56.2379
 Raman Activ --     2.7375                 0.8743                 1.5000

                    10                     11                     12
                    A'                     A'                     A'
 Frequencies --  1173.8634              1216.5879              1243.6824
 Red. masses --     1.6640                 3.2431                 1.6105
 Frc consts  --     1.3510                 2.8281                 1.4677
 IR Inten    --    12.7287                 4.1711                 6.0629
 Raman Activ --     1.1509                10.1801                24.7523

                    13                     14                     15
                    A'                     A'                     A'
 Frequencies --  1402.7607              1480.9957              1566.6191
 Red. masses --     1.3867                 3.1681                 2.5383
 Frc consts  --     1.6077                 4.0941                 3.6705
 IR Inten    --     0.6974                 9.2018                23.9708
 Raman Activ --    13.2333                36.5389                30.6056

                    16                     17                     18
                    A'                     A'                     A'
 Frequencies --  1642.7804              1719.3165              3392.8624
 Red. masses --     2.9901                 3.4202                 1.0989
 Frc consts  --     4.7543                 5.9569                 7.4535
 IR Inten    --    24.8214                21.8309                 4.3046
 Raman Activ --    37.9454                 2.8787                56.3495

                    19                     20                     21
                    A'                     A'                     A'
 Frequencies --  3398.9968              3428.4920              3908.1152
 Red. masses --     1.0932                 1.1077                 1.0826
 Frc consts  --     7.4415                 7.6713                 9.7422
 IR Inten    --     3.2399                 1.9387                92.8980
 Raman Activ --    66.4142                93.4710                82.1231

 - Thermochemistry -
 -------------------
 Temperature   298.150 Kelvin.  Pressure   1.00000 Atm.
 Atom  1 has atomic number  7 and mass  14.00307

 Molecular mass:    68.03745 amu.
 Principal axes and moments of inertia in atomic units:
                           1         2         3
     EIGENVALUES --   181.55225 186.07418 367.62643
           X            0.50806   0.86132   0.00000
           Y            0.86132  -0.50806   0.00000
           Z            0.00000   0.00000   1.00000
 This molecule is an asymmetric top.
 Rotational symmetry number  1.
 Rotational temperatures (Kelvin)      0.47707     0.46548     0.23560
 Rotational constants (GHZ):           9.94062     9.69904     4.90917
 Zero-point vibrational energy     200543.2 (Joules/Mol)
                                   47.93097 (Kcal/Mol)
 Warning -- explicit consideration of   1 degrees of freedom as
           vibrations may cause significant error
 Vibrational temperatures:    796.19   993.58  1050.01  1213.76  1410.65
          (Kelvin)           1411.79  1456.46  1465.24  1645.08  1688.93
                             1750.40  1789.38  2018.26  2130.82  2254.01
                             2363.59  2473.71  4881.57  4890.39  4932.83
                             5622.90

 Zero-point correction=                           0.076383 (Hartree/Particle)
 Thermal correction to Energy=                    0.079927
 Thermal correction to Enthalpy=                  0.080871
 Thermal correction to Gibbs Free Energy=         0.050222
 Sum of electronic and zero-point Energies=           -224.823739
 Sum of electronic and thermal Energies=              -224.820195
 Sum of electronic and thermal Enthalpies=            -224.819251
 Sum of electronic and thermal Free Energies=         -224.849899

                     E (Thermal)             CV                S
                      KCal/Mol        Cal/Mol-Kelvin    Cal/Mol-Kelvin
 Total                   50.155             11.978             64.505
 Electronic               0.000              0.000              0.000
 Translational            0.889              2.981             38.570
 Rotational               0.889              2.981             24.033
 Vibrational             48.377              6.016              1.902
 Vibration  1             0.909              1.132              0.537

 Optimization completed.
    -- Stationary point found.
 Normal termination of Gaussian 03 at Thu Jul 14 02:31:05 2005.
