 Gaussian 98, Revision A.6,
 Gaussian 98:  IBM-RS6000-G98RevA.6 19-Oct-1998

 ---------------------
 #HF/CEP-31G* opt freq
 ---------------------

 --------------------------------
 1H imidazole C3H4N2 casno=288324
 --------------------------------
 Symbolic Z-matrix:
 Charge =  0 Multiplicity = 1

 SCF Done:  E(RHF) =  -38.0686012141     A.U. after   14 cycles
 SCF Done:  E(RHF) =  -38.1253369358     A.U. after   13 cycles
 SCF Done:  E(RHF) =  -38.1335919450     A.U. after   13 cycles
 SCF Done:  E(RHF) =  -38.1338938773     A.U. after   11 cycles
 SCF Done:  E(RHF) =  -38.1339811198     A.U. after   11 cycles
 SCF Done:  E(RHF) =  -38.1339836678     A.U. after    9 cycles
 Optimization completed.
    -- Stationary point found.
 Normal termination of Gaussian 98.

 -------------------------------------------------
 #N Geom=AllCheck Guess=TCheck RHF/CEP-31G(d) Freq
 -------------------------------------------------

 1H imidazole C3H4N2 casno=288324
 --------------------------------
 Redundant internal coordinates taken from checkpointfile:
 /wrk/rdj3/Gau-17888.chk
 Charge =  0 Multiplicity = 1

                         Standard orientation:
 ---------------------------------------------------------------------
 Center     Atomic     Atomic              Coordinates (Angstroms)
 Number     Number      Type              X           Y           Z
 ---------------------------------------------------------------------
    1          7             0       -0.758296   -0.993991    0.000000
    2          1             0       -0.009818    2.082774    0.000000
    3          6             0        1.116588    0.270151    0.000000
    4          1             0        2.117912    0.660455    0.000000
    5          6             0        0.620171   -1.012029    0.000000
    6          1             0        1.172102   -1.935829    0.000000
    7          1             0       -2.093214    0.648738    0.000000
    8          6             0       -1.085635    0.265264    0.000000
    9          7             0        0.000000    1.084054    0.000000
 ---------------------------------------------------------------------

 SCF Done:  E(RHF) =  -38.1339836678     A.U. after    1 cycles

  The electronic state is 1-A'.
 Alpha  occ. eigenvalues --   -1.35134  -1.17566  -1.01346  -0.83292  -0.80129
 Alpha  occ. eigenvalues --   -0.75957  -0.60695  -0.60130  -0.59558  -0.56858
 Alpha  occ. eigenvalues --   -0.43086  -0.39649  -0.31707
 Alpha virt. eigenvalues --    0.17132   0.21900   0.21965   0.26854   0.27660
 Alpha virt. eigenvalues --    0.30742   0.32103   0.37310   0.38153   0.42021
 Alpha virt. eigenvalues --    0.47106   0.47391   0.49961   0.51162   0.52517

  Exact polarizability:  45.154   0.157  45.792   0.000   0.000  22.683
 Approx polarizability:  42.348   1.037  45.464   0.000   0.000  23.647

                     1                      2                      3
                    A"                     A"                     A"
 Frequencies --   554.7367               677.4136               721.1943
 Red. masses --     1.4998                 2.2646                 2.9863
 Frc consts  --     0.2719                 0.6123                 0.9151
 IR Inten    --   134.0164                11.2353                 8.9206
 Raman Activ --     0.8752                 1.3120                 0.4037

                     4                      5                      6
                    A"                     A'                     A"
 Frequencies --   834.6910               965.1283               967.8131
 Red. masses --     1.2350                 5.4850                 1.3481
 Frc consts  --     0.5070                 3.0102                 0.7440
 IR Inten    --    72.4601                 6.4355                28.2825
 Raman Activ --     7.1067                 3.4570                 4.6798

                     7                      8                      9
                    A"                     A'                     A'
 Frequencies --   996.6728              1001.0186              1147.4031
 Red. masses --     1.3555                 4.6336                 1.6600
 Frc consts  --     0.7933                 2.7356                 1.2876
 IR Inten    --     0.8247                 2.0040                60.4747
 Raman Activ --     4.7154                 3.6995                 2.1395

                    10                     11                     12
                    A'                     A'                     A'
 Frequencies --  1179.4845              1233.2942              1241.5834
 Red. masses --     1.5212                 2.6681                 1.8156
 Frc consts  --     1.2469                 2.3911                 1.6490
 IR Inten    --    16.5455                 5.4811                 5.2461
 Raman Activ --     1.2134                 9.7045                23.8639

                    13                     14                     15
                    A'                     A'                     A'
 Frequencies --  1388.6896              1488.7294              1558.6267
 Red. masses --     1.3417                 3.5214                 2.6054
 Frc consts  --     1.5245                 4.5984                 3.7291
 IR Inten    --     0.9137                 7.2865                26.3356
 Raman Activ --     7.1290                29.1805                16.3158

                    16                     17                     18
                    A'                     A'                     A'
 Frequencies --  1650.6827              1727.3108              3444.2171
 Red. masses --     3.3271                 3.7866                 1.0930
 Frc consts  --     5.3413                 6.6564                 7.6394
 IR Inten    --    30.2701                24.4697                13.7773
 Raman Activ --    30.2893                 3.6437                45.1999

                    19                     20                     21
                    A'                     A'                     A'
 Frequencies --  3450.4926              3475.4462              3928.7564
 Red. masses --     1.0994                 1.1083                 1.0831
 Frc consts  --     7.7120                 7.8875                 9.8500
 IR Inten    --     8.0477                 8.1435                94.7763
 Raman Activ --    71.9412                92.8989                81.9682

 - Thermochemistry -
 -------------------
 Temperature   298.150 Kelvin.  Pressure   1.00000 Atm.
 Atom  1 has atomic number  7 and mass  14.00307

 Molecular mass:    68.03745 amu.
 Principal axes and moments of inertia in atomic units:
                           1         2         3
     EIGENVALUES --   184.26192 191.54882 375.81073
           X            0.47286   0.88114   0.00000
           Y            0.88114  -0.47286   0.00000
           Z            0.00000   0.00000   1.00000
 THIS MOLECULE IS AN ASYMMETRIC TOP.
 ROTATIONAL SYMMETRY NUMBER  1.
 ROTATIONAL TEMPERATURES (KELVIN)      0.47006     0.45217     0.23047
 ROTATIONAL CONSTANTS (GHZ)            9.79443     9.42183     4.80226
 Zero-point vibrational energy     201172.3 (Joules/Mol)
                                   48.08134 (Kcal/Mol)
 WARNING-- EXPLICIT CONSIDERATION OF   1 DEGREES OF FREEDOM AS
           VIBRATIONS MAY CAUSE SIGNIFICANT ERROR
 VIBRATIONAL TEMPERATURES:    798.14   974.64  1037.63  1200.93  1388.60
          (KELVIN)           1392.46  1433.98  1440.23  1650.85  1697.01
                             1774.43  1786.35  1998.00  2141.94  2242.50
                             2374.95  2485.20  4955.43  4964.46  5000.36
                             5652.57

 Zero-point correction=                           0.076622 (Hartree/Particle)
 Thermal correction to Energy=                    0.080184
 Thermal correction to Enthalpy=                  0.081128
 Thermal correction to Gibbs Free Energy=         0.050425
 Sum of electronic and zero-point Energies=            -38.057361
 Sum of electronic and thermal Energies=               -38.053800
 Sum of electronic and thermal Enthalpies=             -38.052855
 Sum of electronic and thermal Free Energies=          -38.083559

                     E (Thermal)             CV                S
                      KCAL/MOL        CAL/MOL-KELVIN    CAL/MOL-KELVIN
 TOTAL                   50.316             12.086             64.621
 ELECTRONIC               0.000              0.000              0.000
 TRANSLATIONAL            0.889              2.981             38.570
 ROTATIONAL               0.889              2.981             24.099
 VIBRATIONAL             48.539              6.124              1.952
 VIBRATION  1             0.910              1.129              0.534
                       Q            LOG10(Q)             LN(Q)
 TOTAL BOT       0.640191D-23        -23.193690        -53.405446
 TOTAL V=0       0.112195D+13         12.049974         27.746090
 VIB (BOT)       0.703940D-35        -35.152464        -80.941540
 VIB (BOT)  1    0.281610D+00         -0.550352         -1.267233
 VIB (V=0)       0.123367D+01          0.091200          0.209996
 VIB (V=0)  1    0.107385D+01          0.030944          0.071250
 ELECTRONIC      0.100000D+01          0.000000          0.000000
 TRANSLATIONAL   0.220588D+08          7.343582         16.909224
 ROTATIONAL      0.412279D+05          4.615191         10.626871
 ***** Axes restored to original set *****
 -------------------------------------------------------------------
 Center     Atomic                   Forces (Hartrees/Bohr)
 Number     Number              X              Y              Z
 -------------------------------------------------------------------
    1          7           0.000165392    0.000000000    0.000097144
    2          1          -0.000012507    0.000000000    0.000003954
    3          6           0.000200978    0.000000000   -0.000108004
    4          1           0.000011579    0.000000000    0.000024553
    5          6          -0.000260100    0.000000000   -0.000057924
    6          1           0.000048028    0.000000000   -0.000000152
    7          1          -0.000021730    0.000000000    0.000004055
    8          6          -0.000083109    0.000000000   -0.000199615
    9          7          -0.000048531    0.000000000    0.000235989
 -------------------------------------------------------------------
 Cartesian Forces:  Max     0.000260100 RMS     0.000099696

 GradGradGradGradGradGradGradGradGradGradGradGradGradGradGradGradGradGrad
 Berny optimization.
 Internal  Forces:  Max     0.000170110 RMS     0.000052540
 Search for a local minimum.
 Step number   1 out of a maximum of  48
 All quantities printed in internal units (Hartrees-Bohrs-Radians)
 Second derivative matrix not updated -- analytic derivatives used.
     Eigenvalues ---    0.00583   0.01432   0.02757   0.03473   0.06664
     Eigenvalues ---    0.06974   0.11207   0.11992   0.12513   0.13791
     Eigenvalues ---    0.26434   0.27725   0.40350   0.41815   0.41950
     Eigenvalues ---    0.42170   0.47190   0.49613   0.54863   0.56087
     Eigenvalues ---    0.679661000.000001000.000001000.000001000.00000
     Eigenvalues --- 1000.000001000.000001000.000001000.000001000.00000
     Eigenvalues --- 1000.000001000.000001000.000001000.000001000.00000
     Eigenvalues --- 1000.000001000.000001000.00000
 Angle between quadratic step and forces=  25.53 degrees.
 Linear search not attempted -- first point.
 Iteration  1 RMS(Cart)=  0.00012648 RMS(Int)=  0.00000002
 Iteration  2 RMS(Cart)=  0.00000002 RMS(Int)=  0.00000000
 Variable       Old X    -DE/DX   Delta X   Delta X   Delta X     New X
                                 (Linear)    (Quad)   (Total)
    R1        2.60515   0.00015   0.00000   0.00044   0.00044   2.60558
    R2        2.45873   0.00004   0.00000   0.00009   0.00009   2.45882
    R3        1.88740  -0.00001   0.00000  -0.00001  -0.00001   1.88739
    R4        2.03089  -0.00002   0.00000  -0.00005  -0.00005   2.03085
    R5        2.59823  -0.00002   0.00000  -0.00003  -0.00003   2.59820
    R6        2.61111  -0.00017   0.00000  -0.00042  -0.00042   2.61069
    R7        2.03357  -0.00003   0.00000  -0.00009  -0.00009   2.03348
    R8        2.03729  -0.00002   0.00000  -0.00005  -0.00005   2.03724
    R9        2.56962  -0.00016   0.00000  -0.00036  -0.00036   2.56926
    A1        1.83820  -0.00007   0.00000  -0.00017  -0.00017   1.83803
    A2        2.31186  -0.00003   0.00000  -0.00021  -0.00021   2.31165
    A3        2.14005   0.00000   0.00000   0.00011   0.00011   2.14015
    A4        1.83127   0.00003   0.00000   0.00010   0.00010   1.83138
    A5        1.92711  -0.00005   0.00000  -0.00017  -0.00017   1.92694
    A6        2.12243  -0.00001   0.00000  -0.00026  -0.00026   2.12217
    A7        2.23365   0.00006   0.00000   0.00043   0.00043   2.23408
    A8        2.18878  -0.00001   0.00000  -0.00007  -0.00007   2.18870
    A9        1.96267   0.00002   0.00000   0.00005   0.00005   1.96272
   A10        2.13174  -0.00001   0.00000   0.00002   0.00002   2.13176
   A11        2.21050  -0.00005   0.00000  -0.00018  -0.00018   2.21032
   A12        2.20715  -0.00003   0.00000   0.00001   0.00001   2.20716
   A13        1.86553   0.00007   0.00000   0.00018   0.00018   1.86571
    D1        0.00000   0.00000   0.00000   0.00000   0.00000   0.00000
    D2        3.14159   0.00000   0.00000   0.00000   0.00000   3.14159
    D3        3.14159   0.00000   0.00000   0.00000   0.00000   3.14159
    D4        0.00000   0.00000   0.00000   0.00000   0.00000   0.00000
    D5        3.14159   0.00000   0.00000   0.00000   0.00000   3.14159
    D6        0.00000   0.00000   0.00000   0.00000   0.00000   0.00000
    D7        0.00000   0.00000   0.00000   0.00000   0.00000   0.00000
    D8        3.14159   0.00000   0.00000   0.00000   0.00000   3.14159
    D9        0.00000   0.00000   0.00000   0.00000   0.00000   0.00000
   D10        3.14159   0.00000   0.00000   0.00000   0.00000   3.14159
   D11        3.14159   0.00000   0.00000   0.00000   0.00000   3.14159
   D12        0.00000   0.00000   0.00000   0.00000   0.00000   0.00000
   D13        3.14159   0.00000   0.00000   0.00000   0.00000   3.14159
   D14        0.00000   0.00000   0.00000   0.00000   0.00000   0.00000
   D15        0.00000   0.00000   0.00000   0.00000   0.00000   0.00000
   D16        3.14159   0.00000   0.00000   0.00000   0.00000   3.14159
         Item               Value     Threshold  Converged?
 Maximum Force            0.000170     0.000450     YES
 RMS     Force            0.000053     0.000300     YES
 Maximum Displacement     0.000303     0.001800     YES
 RMS     Displacement     0.000126     0.001200     YES
 Predicted change in Energy=-1.438403D-07
 Optimization completed.
    -- Stationary point found.
                         ----------------------------
                         !   Optimized Parameters   !
                         ! (Angstroms and Degrees)  !
 ------------------------                            -------------------------
 ! Name  Definition              Value          Derivative Info.             !
 -----------------------------------------------------------------------------
 ! R1    R(1,5)                  1.3786         -DE/DX =    0.0001           !
 ! R2    R(1,8)                  1.3011         -DE/DX =    0.               !
 ! R3    R(2,9)                  0.9988         -DE/DX =    0.               !
 ! R4    R(3,4)                  1.0747         -DE/DX =    0.               !
 ! R5    R(3,5)                  1.3749         -DE/DX =    0.               !
 ! R6    R(3,9)                  1.3817         -DE/DX =   -0.0002           !
 ! R7    R(5,6)                  1.0761         -DE/DX =    0.               !
 ! R8    R(7,8)                  1.0781         -DE/DX =    0.               !
 ! R9    R(8,9)                  1.3598         -DE/DX =   -0.0002           !
 ! A1    A(5,1,8)              105.321          -DE/DX =   -0.0001           !
 ! A2    A(4,3,5)              132.46           -DE/DX =    0.               !
 ! A3    A(4,3,9)              122.6157         -DE/DX =    0.               !
 ! A4    A(5,3,9)              104.9243         -DE/DX =    0.               !
 ! A5    A(1,5,3)              110.4151         -DE/DX =   -0.0001           !
 ! A6    A(1,5,6)              121.6062         -DE/DX =    0.               !
 ! A7    A(3,5,6)              127.9787         -DE/DX =    0.0001           !
 ! A8    A(1,8,7)              125.4076         -DE/DX =    0.               !
 ! A9    A(1,8,9)              112.4524         -DE/DX =    0.               !
 ! A10   A(7,8,9)              122.14           -DE/DX =    0.               !
 ! A11   A(2,9,3)              126.6523         -DE/DX =    0.               !
 ! A12   A(2,9,8)              126.4605         -DE/DX =    0.               !
 ! A13   A(3,9,8)              106.8872         -DE/DX =    0.0001           !
 ! D1    D(8,1,5,3)              0.             -DE/DX =    0.               !
 ! D2    D(8,1,5,6)            180.             -DE/DX =    0.               !
 ! D3    D(5,1,8,7)            180.             -DE/DX =    0.               !
 ! D4    D(5,1,8,9)              0.             -DE/DX =    0.               !
 ! D5    D(4,3,5,1)            180.             -DE/DX =    0.               !
 ! D6    D(4,3,5,6)              0.             -DE/DX =    0.               !
 ! D7    D(9,3,5,1)              0.             -DE/DX =    0.               !
 ! D8    D(9,3,5,6)            180.             -DE/DX =    0.               !
 ! D9    D(4,3,9,2)              0.             -DE/DX =    0.               !
 ! D10   D(4,3,9,8)            180.             -DE/DX =    0.               !
 ! D11   D(5,3,9,2)            180.             -DE/DX =    0.               !
 ! D12   D(5,3,9,8)              0.             -DE/DX =    0.               !
 ! D13   D(1,8,9,2)            180.             -DE/DX =    0.               !
 ! D14   D(1,8,9,3)              0.             -DE/DX =    0.               !
 ! D15   D(7,8,9,2)              0.             -DE/DX =    0.               !
 ! D16   D(7,8,9,3)            180.             -DE/DX =    0.               !
 -----------------------------------------------------------------------------
 GradGradGradGradGradGradGradGradGradGradGradGradGradGradGradGradGradGrad

 1\1\GINC-PLUMBUM\Freq\RHF\CEP-31G(d)\C3H4N2\RDJ3\31-Aug-2000\0\\#N GEO
 M=ALLCHECK GUESS=TCHECK RHF/CEP-31G(D) FREQ\\1H imidazole C3H4N2 casno
 =288324\\0,1\N,0.5032392223,0.,1.1444565578\H,0.4994067519,0.,-2.02203
 82853\C,-1.021726298,0.,-0.5251914052\H,-1.9031620441,0.,-1.1400557573
 \C,-0.8408001061,0.,0.8377761726\H,-1.5945244729,0.,1.6058482329\H,2.1
 870761478,0.,-0.1382200171\C,1.1175693151,0.,-0.0024839902\N,0.2549671
 725,0.,-1.0536440142\\Version=IBM-RS6000-G98RevA.6\State=1-A'\HF=-38.1
 339837\RMSD=1.108e-09\RMSF=9.970e-05\Dipole=-0.0959691,0.,-1.5724275\D
 ipoleDeriv=-0.5125544,0.,-0.0494469,0.,-0.3621387,0.,0.0823859,0.,-0.6
 625831,0.1929167,0.,-0.0106486,0.,0.373091,0.,-0.0061193,0.,0.259251,0
 .0307277,0.,-0.3525533,0.,-0.1819671,0.,-0.0662433,0.,0.228356,-0.0102
 351,0.,-0.054493,0.,0.229899,0.,-0.0810657,0.,0.0322039,0.3229217,0.,0
 .0540626,0.,-0.152291,0.,-0.1250525,0.,0.1765938,-0.0255693,0.,0.07433
 71,0.,0.1862105,0.,0.1028606,0.,0.0078027,-0.0791582,0.,0.0372003,0.,0
 .1669897,0.,0.0357811,0.,0.0670739,0.2620542,0.,0.0614987,0.,0.0772529
 ,0.,-0.0149267,0.,0.7053137,-0.1811033,0.,0.2400431,0.,-0.3370463,0.,0
 .0723799,0.,-0.8140118\Polar=45.1169951,0.,22.6827918,-0.0058679,0.,45
 .8284341\PolarDeriv=-11.3203223,0.,-1.4862566,-0.6081721,0.,5.8229735,
 0.,0.2993521,0.,0.,2.3775685,0.,6.2132893,0.,1.6691308,2.4119273,0.,6.
 5788324,0.7403575,0.,-0.1545124,-1.7728898,0.,1.3077012,0.,0.187644,0.
 ,0.,-0.7798837,0.,-1.0112235,0.,-0.0443196,1.8009823,0.,-8.9079205,0.1
 564769,0.,0.1808136,-2.0787403,0.,-1.2074886,0.,-6.1390388,0.,0.,-6.20
 19674,0.,-7.5737212,0.,-3.9066416,-3.0190665,0.,-5.5196182,-6.2877522,
 0.,0.8530744,-3.0149147,0.,-2.3182381,0.,1.0138273,0.,0.,0.6862231,0.,
 -2.954191,0.,0.3805953,-2.5677288,0.,-3.0956316,8.4701448,0.,0.5323639
 ,4.0284326,0.,-2.1544444,0.,-1.8457782,0.,0.,6.2122824,0.,7.7703937,0.
 ,3.4639025,3.0982186,0.,4.3971981,-4.2296412,0.,0.6292639,3.2726711,0.
 ,-3.0114535,0.,0.0356277,0.,0.,-0.4133041,0.,2.826791,0.,-0.366995,-2.
 7890986,0.,4.8857856,9.6929753,0.,0.0158121,-0.6852786,0.,0.978642,0.,
 -0.8322041,0.,0.,0.0529002,0.,-0.9218901,0.,0.1550678,1.531712,0.,-0.3
 217969,7.0841856,0.,1.0567938,-0.2882773,0.,0.5022312,0.,6.6694042,0.,
 0.,-1.0424292,0.,-6.599357,0.,-1.2082091,-0.6950636,0.,1.9960194,-4.30
 64244,0.,-1.6273526,1.147169,0.,0.0800767,0.,0.6111659,0.,0.,-0.891389
 8,0.,2.2499087,0.,-0.1425311,0.2281173,0.,-0.0128683\HyperPolar=52.096
 5194,0.,6.8742652,0.,-15.917271,0.,-4.3828423,-26.8602849,0.,-24.49234
 97\PG=CS [SG(C3H4N2)]\NImag=0\\0.57079753,0.,0.11875251,-0.07693875,0.
 ,0.69817921,-0.00294345,0.,-0.01020396,0.09623955,0.,0.00762043,0.,0.,
 0.01252981,-0.00399517,0.,-0.00274884,-0.11360702,0.,0.51921530,-0.032
 57839,0.,-0.01102572,0.00963138,0.,-0.00272571,0.82508491,0.,0.0189105
 9,0.,0.,-0.00808659,0.,0.,0.13249891,-0.10264502,0.,-0.01852808,0.0319
 3084,0.,0.00054355,0.19068134,0.,0.87775152,0.00233660,0.,0.00081055,0
 .00029576,0.,0.00017683,-0.28874590,0.,-0.15510191,0.30317010,0.,0.008
 30830,0.,0.,-0.00114838,0.,0.,-0.02924992,0.,0.,0.02350528,-0.00463253
 ,0.,-0.00615688,-0.00120064,0.,0.00011591,-0.16643315,0.,-0.18768796,0
 .17016680,0.,0.17680060,-0.29815632,0.,-0.04989095,-0.01049690,0.,-0.0
 0003408,-0.12037285,0.,-0.02932488,0.00620018,0.,-0.02419442,0.7556973
 5,0.,-0.08046226,0.,0.,0.00198656,0.,0.,-0.07653651,0.,0.,0.00008779,0
 .,0.,0.16028218,-0.04939470,0.,-0.14008908,0.00326515,0.,0.00186364,-0
 .05024701,0.,-0.47909635,0.00176199,0.,0.00347768,-0.16461286,0.,0.933
 25320,-0.01811659,0.,0.02397816,0.00089434,0.,-0.00003578,0.01080980,0
 .,-0.00623277,-0.00020251,0.,0.00092777,-0.22134903,0.,0.16305458,0.23
 512121,0.,-0.00427650,0.,0.,0.00248881,0.,0.,0.00091806,0.,0.,-0.00273
 536,0.,0.,-0.03864419,0.,0.,0.02896339,-0.00857464,0.,0.01552319,0.001
 48300,0.,0.00027874,0.02266757,0.,-0.00703319,-0.00071495,0.,-0.000300
 64,0.16814437,0.,-0.24638276,-0.17775980,0.,0.24437077,-0.00780565,0.,
 0.00292873,-0.00037298,0.,-0.00046721,0.00052679,0.,-0.00546681,-0.000
 56415,0.,0.00042989,0.00176775,0.,0.00472876,-0.00062035,0.,-0.0000658
 0,0.41241936,0.,-0.00326397,0.,0.,-0.00177049,0.,0.,0.00361995,0.,0.,0
 .00199709,0.,0.,0.00911750,0.,0.,0.00088835,0.,0.,0.02951961,0.0340858
 1,0.,0.00226567,0.00063425,0.,0.00048872,-0.00031807,0.,-0.00672189,-0
 .00132956,0.,0.00111447,0.00261495,0.,-0.00529534,0.00180957,0.,0.0006
 7556,-0.04261851,0.,0.07220362,-0.21449589,0.,0.15645741,0.02068768,0.
 ,0.01449522,-0.09778044,0.,0.00886653,-0.00422381,0.,0.00442162,-0.090
 36573,0.,0.01557543,-0.00746652,0.,-0.00431604,-0.39238268,0.,0.039666
 91,1.02910120,0.,-0.09173487,0.,0.,-0.00875250,0.,0.,0.01628600,0.,0.,
 0.00321666,0.,0.,0.01002576,0.,0.,0.00603161,0.,0.,-0.04082449,0.,0.,0
 .17819513,0.16069117,0.,-0.42598435,-0.01982268,0.,-0.01071387,-0.0534
 5809,0.,-0.01759324,0.00517745,0.,-0.00625489,0.09992736,0.,0.01395145
 ,-0.00258145,0.,-0.00052981,0.03599240,0.,-0.07443523,-0.11620036,0.,0
 .77352455,0.00096216,0.,-0.03611549,-0.11393540,0.,0.10619292,-0.30657
 531,0.,0.06729268,-0.01826627,0.,0.02051466,-0.02292445,0.,0.07586865,
 0.00092963,0.,-0.00086373,-0.01296809,0.,-0.03454535,-0.24307383,0.,-0
 .10972578,0.71585156,0.,0.02614578,0.,0.,-0.00486765,0.,0.,-0.05836049
 ,0.,0.,-0.00398145,0.,0.,0.01414317,0.,0.,0.00636585,0.,0.,0.00071646,
 0.,0.,-0.07244329,0.,0.,0.09228162,0.05140382,0.,-0.12246084,0.1075210
 5,0.,-0.50904315,0.07085882,0.,-0.16163438,-0.02094720,0.,0.01889171,-
 0.00262949,0.,-0.08168244,-0.00316027,0.,-0.00660187,0.00453855,0.,0.0
 0970442,-0.11896672,0.,-0.25196462,-0.08861856,0.,1.10479118\\-0.00016
 539,0.,-0.00009714,0.00001251,0.,-0.00000395,-0.00020098,0.,0.00010800
 ,-0.00001158,0.,-0.00002455,0.00026010,0.,0.00005792,-0.00004803,0.,0.
 00000015,0.00002173,0.,-0.00000406,0.00008311,0.,0.00019962,0.00004853
 ,0.,-0.00023599\\\@

 Age does not diminish the extreme disappointment of
 having a scoop of ice cream fall from the cone.
 -- Jim Fiebig
 Job cpu time:  0 days  0 hours  2 minutes 18.0 seconds.
 File lengths (MBytes):  RWF=   17 Int=    0 D2E=    0 Chk=    8 Scr=    1
 Normal termination of Gaussian 98.
