 Gaussian 98, Revision A.6,
 Gaussian 98:  IBM-RS6000-G98RevA.6 19-Oct-1998

 ----------------------
 #HF/CEP-121G* opt freq
 ----------------------

 --------------------------------
 1H imidazole C3H4N2 casno=288324
 --------------------------------
 Symbolic Z-matrix:
 Charge =  0 Multiplicity = 1

 SCF Done:  E(RHF) =  -38.0876145272     A.U. after   14 cycles
 SCF Done:  E(RHF) =  -38.1384080040     A.U. after   13 cycles
 SCF Done:  E(RHF) =  -38.1448490465     A.U. after   13 cycles
 SCF Done:  E(RHF) =  -38.1452041151     A.U. after   11 cycles
 SCF Done:  E(RHF) =  -38.1453105838     A.U. after   11 cycles
 SCF Done:  E(RHF) =  -38.1453159631     A.U. after    9 cycles
 Optimization completed.
    -- Stationary point found.
 Normal termination of Gaussian 98.

 --------------------------------------------------
 #N Geom=AllCheck Guess=TCheck RHF/CEP-121G(d) Freq
 --------------------------------------------------

 1H imidazole C3H4N2 casno=288324
 --------------------------------
 Redundant internal coordinates taken from checkpointfile:
 /wrk/rdj3/Gau-11042.chk
 Charge =  0 Multiplicity = 1

                         Standard orientation:
 ---------------------------------------------------------------------
 Center     Atomic     Atomic              Coordinates (Angstroms)
 Number     Number      Type              X           Y           Z
 ---------------------------------------------------------------------
    1          7             0       -0.756577   -0.988440    0.000000
    2          1             0       -0.007457    2.075632    0.000000
    3          6             0        1.112500    0.262593    0.000000
    4          1             0        2.110693    0.650588    0.000000
    5          6             0        0.622130   -1.004591    0.000000
    6          1             0        1.169909   -1.926491    0.000000
    7          1             0       -2.088332    0.647410    0.000000
    8          6             0       -1.085112    0.264891    0.000000
    9          7             0        0.000000    1.080698    0.000000
 ---------------------------------------------------------------------

 SCF Done:  E(RHF) =  -38.1453159631     A.U. after    1 cycles

  The electronic state is 1-A'.
 Alpha  occ. eigenvalues --   -1.35624  -1.17800  -1.01957  -0.83558  -0.80484
 Alpha  occ. eigenvalues --   -0.76436  -0.61315  -0.60397  -0.59930  -0.57231
 Alpha  occ. eigenvalues --   -0.43309  -0.39801  -0.32293
 Alpha virt. eigenvalues --    0.13345   0.17207   0.17914   0.18773   0.20228
 Alpha virt. eigenvalues --    0.21943   0.27710   0.31286   0.34161   0.35426
 Alpha virt. eigenvalues --    0.45910   0.46064   0.47030   0.49959   0.50837

  Exact polarizability:  47.042  -0.485  46.530   0.000   0.000  25.065
 Approx polarizability:  43.234   0.587  45.653   0.000   0.000  26.442

                     1                      2                      3
                    A"                     A"                     A"
 Frequencies --   523.0700               683.1814               722.8624
 Red. masses --     1.4825                 2.2244                 2.9336
 Frc consts  --     0.2390                 0.6117                 0.9032
 IR Inten    --   129.6075                 7.7065                 9.9627
 Raman Activ --     0.7944                 0.4422                 0.1740

                     4                      5                      6
                    A"                     A"                     A'
 Frequencies --   827.3651               958.2412               972.0745
 Red. masses --     1.2360                 1.3789                 5.4910
 Frc consts  --     0.4985                 0.7460                 3.0570
 IR Inten    --    65.1078                28.4744                 7.0166
 Raman Activ --     0.3637                 0.4220                 2.3735

                     7                      8                      9
                    A"                     A'                     A'
 Frequencies --   994.6094              1008.7238              1141.5431
 Red. masses --     1.3634                 4.6570                 1.7426
 Frc consts  --     0.7946                 2.7919                 1.3379
 IR Inten    --     0.3960                 2.2134                61.8881
 Raman Activ --     0.9308                 2.2247                 1.7313

                    10                     11                     12
                    A'                     A'                     A'
 Frequencies --  1169.5134              1216.8402              1237.1489
 Red. masses --     1.6235                 3.8784                 1.5162
 Frc consts  --     1.3083                 3.3835                 1.3673
 IR Inten    --    14.8755                 6.2030                 5.2605
 Raman Activ --     1.2065                12.5905                22.0196

                    13                     14                     15
                    A'                     A'                     A'
 Frequencies --  1392.6838              1476.2332              1554.6880
 Red. masses --     1.3687                 3.3053                 2.5766
 Frc consts  --     1.5641                 4.2440                 3.6693
 IR Inten    --     0.8235                 8.8443                24.1017
 Raman Activ --     9.4867                31.2455                18.6940

                    16                     17                     18
                    A'                     A'                     A'
 Frequencies --  1632.6945              1709.6530              3420.7984
 Red. masses --     2.9363                 3.4023                 1.0950
 Frc consts  --     4.6117                 5.8592                 7.5496
 IR Inten    --    27.8271                26.4487                15.8999
 Raman Activ --    24.5263                 2.0819                39.8759

                    19                     20                     21
                    A'                     A'                     A'
 Frequencies --  3422.1659              3449.6398              3910.2452
 Red. masses --     1.0970                 1.1073                 1.0828
 Frc consts  --     7.5691                 7.7635                 9.7543
 IR Inten    --     0.1394                 6.2484                79.2167
 Raman Activ --    94.2503               104.2124                82.5652

 - Thermochemistry -
 -------------------
 Temperature   298.150 Kelvin.  Pressure   1.00000 Atm.
 Atom  1 has atomic number  7 and mass  14.00307

 Molecular mass:    68.03745 amu.
 Principal axes and moments of inertia in atomic units:
                           1         2         3
     EIGENVALUES --   183.75003 189.37226 373.12229
           X            0.51214   0.85890   0.00000
           Y            0.85890  -0.51214   0.00000
           Z            0.00000   0.00000   1.00000
 THIS MOLECULE IS AN ASYMMETRIC TOP.
 ROTATIONAL SYMMETRY NUMBER  1.
 ROTATIONAL TEMPERATURES (KELVIN)      0.47137     0.45737     0.23213
 ROTATIONAL CONSTANTS (GHZ)            9.82172     9.53012     4.83686
 Zero-point vibrational energy     199919.8 (Joules/Mol)
                                   47.78198 (Kcal/Mol)
 WARNING-- EXPLICIT CONSIDERATION OF   1 DEGREES OF FREEDOM AS
           VIBRATIONS MAY CAUSE SIGNIFICANT ERROR
 VIBRATIONAL TEMPERATURES:    752.58   982.94  1040.03  1190.39  1378.69
          (KELVIN)           1398.59  1431.01  1451.32  1642.42  1682.66
                             1750.75  1779.97  2003.75  2123.96  2236.84
                             2349.07  2459.80  4921.74  4923.71  4963.23
                             5625.94

 Zero-point correction=                           0.076145 (Hartree/Particle)
 Thermal correction to Energy=                    0.079729
 Thermal correction to Enthalpy=                  0.080674
 Thermal correction to Gibbs Free Energy=         0.049946
 Sum of electronic and zero-point Energies=            -38.069171
 Sum of electronic and thermal Energies=               -38.065587
 Sum of electronic and thermal Enthalpies=             -38.064642
 Sum of electronic and thermal Free Energies=          -38.095369

                     E (Thermal)             CV                S
                      KCAL/MOL        CAL/MOL-KELVIN    CAL/MOL-KELVIN
 TOTAL                   50.031             12.182             64.671
 ELECTRONIC               0.000              0.000              0.000
 TRANSLATIONAL            0.889              2.981             38.570
 ROTATIONAL               0.889              2.981             24.077
 VIBRATIONAL             48.254              6.220              2.023
 VIBRATION  1             0.878              1.199              0.603
                       Q            LOG10(Q)             LN(Q)
 TOTAL BOT       0.106261D-22        -22.973627        -52.898732
 TOTAL V=0       0.112357D+13         12.050601         27.747534
 VIB (BOT)       0.118098D-34        -34.927757        -80.424132
 VIB (BOT)  1    0.307722D+00         -0.511842         -1.178559
 VIB (V=0)       0.124874D+01          0.096471          0.222134
 VIB (V=0)  1    0.108711D+01          0.036272          0.083519
 ELECTRONIC      0.100000D+01          0.000000          0.000000
 TRANSLATIONAL   0.220588D+08          7.343582         16.909224
 ROTATIONAL      0.407894D+05          4.610547         10.616176
 ***** Axes restored to original set *****
 -------------------------------------------------------------------
 Center     Atomic                   Forces (Hartrees/Bohr)
 Number     Number              X              Y              Z
 -------------------------------------------------------------------
    1          7           0.000256474    0.000000000    0.000137683
    2          1          -0.000017286    0.000000000    0.000012170
    3          6           0.000182454    0.000000000   -0.000235037
    4          1           0.000014684    0.000000000    0.000037169
    5          6          -0.000268865    0.000000000   -0.000095553
    6          1           0.000073867    0.000000000   -0.000023070
    7          1          -0.000042836    0.000000000    0.000018833
    8          6          -0.000042538    0.000000000   -0.000185079
    9          7          -0.000155954    0.000000000    0.000332885
 -------------------------------------------------------------------
 Cartesian Forces:  Max     0.000332885 RMS     0.000127091

 GradGradGradGradGradGradGradGradGradGradGradGradGradGradGradGradGradGrad
 Berny optimization.
 Internal  Forces:  Max     0.000258562 RMS     0.000070352
 Search for a local minimum.
 Step number   1 out of a maximum of  48
 All quantities printed in internal units (Hartrees-Bohrs-Radians)
 Second derivative matrix not updated -- analytic derivatives used.
     Eigenvalues ---    0.00518   0.01434   0.02648   0.03342   0.06711
     Eigenvalues ---    0.07001   0.11271   0.12028   0.12547   0.13742
     Eigenvalues ---    0.26053   0.27296   0.39202   0.41099   0.41312
     Eigenvalues ---    0.41598   0.46197   0.48887   0.54142   0.54497
     Eigenvalues ---    0.667621000.000001000.000001000.000001000.00000
     Eigenvalues --- 1000.000001000.000001000.000001000.000001000.00000
     Eigenvalues --- 1000.000001000.000001000.000001000.000001000.00000
     Eigenvalues --- 1000.000001000.000001000.00000
 Angle between quadratic step and forces=  23.52 degrees.
 Linear search not attempted -- first point.
 Iteration  1 RMS(Cart)=  0.00016607 RMS(Int)=  0.00000003
 Iteration  2 RMS(Cart)=  0.00000003 RMS(Int)=  0.00000001
 Variable       Old X    -DE/DX   Delta X   Delta X   Delta X     New X
                                 (Linear)    (Quad)   (Total)
    R1        2.60556   0.00021   0.00000   0.00058   0.00058   2.60614
    R2        2.44847  -0.00001   0.00000   0.00006   0.00006   2.44853
    R3        1.88020  -0.00002   0.00000  -0.00002  -0.00002   1.88019
    R4        2.02380  -0.00003   0.00000  -0.00008  -0.00008   2.02372
    R5        2.56768  -0.00001   0.00000   0.00002   0.00002   2.56770
    R6        2.60957  -0.00026   0.00000  -0.00063  -0.00063   2.60894
    R7        2.02647  -0.00007   0.00000  -0.00017  -0.00017   2.02630
    R8        2.02895  -0.00004   0.00000  -0.00011  -0.00011   2.02884
    R9        2.56544  -0.00012   0.00000  -0.00032  -0.00032   2.56512
    A1        1.83887  -0.00013   0.00000  -0.00030  -0.00030   1.83857
    A2        2.31075  -0.00001   0.00000  -0.00022  -0.00022   2.31052
    A3        2.13679   0.00004   0.00000   0.00028   0.00028   2.13707
    A4        1.83564  -0.00003   0.00000  -0.00006  -0.00006   1.83559
    A5        1.92831   0.00000   0.00000  -0.00004  -0.00004   1.92827
    A6        2.11864  -0.00004   0.00000  -0.00036  -0.00036   2.11828
    A7        2.23623   0.00004   0.00000   0.00039   0.00039   2.23663
    A8        2.19143  -0.00002   0.00000  -0.00010  -0.00010   2.19133
    A9        1.95910   0.00002   0.00000   0.00002   0.00002   1.95912
   A10        2.13265   0.00000   0.00000   0.00008   0.00008   2.13274
   A11        2.21237  -0.00008   0.00000  -0.00026  -0.00026   2.21211
   A12        2.20797  -0.00006   0.00000  -0.00011  -0.00011   2.20785
   A13        1.86285   0.00014   0.00000   0.00037   0.00037   1.86322
    D1        0.00000   0.00000   0.00000   0.00000   0.00000   0.00000
    D2        3.14159   0.00000   0.00000   0.00000   0.00000   3.14159
    D3        3.14159   0.00000   0.00000   0.00000   0.00000   3.14159
    D4        0.00000   0.00000   0.00000   0.00000   0.00000   0.00000
    D5        3.14159   0.00000   0.00000   0.00000   0.00000   3.14159
    D6        0.00000   0.00000   0.00000   0.00000   0.00000   0.00000
    D7        0.00000   0.00000   0.00000   0.00000   0.00000   0.00000
    D8        3.14159   0.00000   0.00000   0.00000   0.00000   3.14159
    D9        0.00000   0.00000   0.00000   0.00000   0.00000   0.00000
   D10        3.14159   0.00000   0.00000   0.00000   0.00000   3.14159
   D11        3.14159   0.00000   0.00000   0.00000   0.00000   3.14159
   D12        0.00000   0.00000   0.00000   0.00000   0.00000   0.00000
   D13        3.14159   0.00000   0.00000   0.00000   0.00000   3.14159
   D14        0.00000   0.00000   0.00000   0.00000   0.00000   0.00000
   D15        0.00000   0.00000   0.00000   0.00000   0.00000   0.00000
   D16        3.14159   0.00000   0.00000   0.00000   0.00000   3.14159
         Item               Value     Threshold  Converged?
 Maximum Force            0.000259     0.000450     YES
 RMS     Force            0.000070     0.000300     YES
 Maximum Displacement     0.000435     0.001800     YES
 RMS     Displacement     0.000166     0.001200     YES
 Predicted change in Energy=-2.534869D-07
 Optimization completed.
    -- Stationary point found.
                         ----------------------------
                         !   Optimized Parameters   !
                         ! (Angstroms and Degrees)  !
 ------------------------                            -------------------------
 ! Name  Definition              Value          Derivative Info.             !
 -----------------------------------------------------------------------------
 ! R1    R(1,5)                  1.3788         -DE/DX =    0.0002           !
 ! R2    R(1,8)                  1.2957         -DE/DX =    0.               !
 ! R3    R(2,9)                  0.995          -DE/DX =    0.               !
 ! R4    R(3,4)                  1.0709         -DE/DX =    0.               !
 ! R5    R(3,5)                  1.3588         -DE/DX =    0.               !
 ! R6    R(3,9)                  1.3809         -DE/DX =   -0.0003           !
 ! R7    R(5,6)                  1.0724         -DE/DX =   -0.0001           !
 ! R8    R(7,8)                  1.0737         -DE/DX =    0.               !
 ! R9    R(8,9)                  1.3576         -DE/DX =   -0.0001           !
 ! A1    A(5,1,8)              105.3596         -DE/DX =   -0.0001           !
 ! A2    A(4,3,5)              132.3962         -DE/DX =    0.               !
 ! A3    A(4,3,9)              122.4292         -DE/DX =    0.               !
 ! A4    A(5,3,9)              105.1747         -DE/DX =    0.               !
 ! A5    A(1,5,3)              110.484          -DE/DX =    0.               !
 ! A6    A(1,5,6)              121.3893         -DE/DX =    0.               !
 ! A7    A(3,5,6)              128.1267         -DE/DX =    0.               !
 ! A8    A(1,8,7)              125.5598         -DE/DX =    0.               !
 ! A9    A(1,8,9)              112.2481         -DE/DX =    0.               !
 ! A10   A(7,8,9)              122.1921         -DE/DX =    0.               !
 ! A11   A(2,9,3)              126.7593         -DE/DX =   -0.0001           !
 ! A12   A(2,9,8)              126.5071         -DE/DX =   -0.0001           !
 ! A13   A(3,9,8)              106.7336         -DE/DX =    0.0001           !
 ! D1    D(8,1,5,3)              0.             -DE/DX =    0.               !
 ! D2    D(8,1,5,6)            180.             -DE/DX =    0.               !
 ! D3    D(5,1,8,7)            180.             -DE/DX =    0.               !
 ! D4    D(5,1,8,9)              0.             -DE/DX =    0.               !
 ! D5    D(4,3,5,1)            180.             -DE/DX =    0.               !
 ! D6    D(4,3,5,6)              0.             -DE/DX =    0.               !
 ! D7    D(9,3,5,1)              0.             -DE/DX =    0.               !
 ! D8    D(9,3,5,6)            180.             -DE/DX =    0.               !
 ! D9    D(4,3,9,2)              0.             -DE/DX =    0.               !
 ! D10   D(4,3,9,8)            180.             -DE/DX =    0.               !
 ! D11   D(5,3,9,2)            180.             -DE/DX =    0.               !
 ! D12   D(5,3,9,8)              0.             -DE/DX =    0.               !
 ! D13   D(1,8,9,2)            180.             -DE/DX =    0.               !
 ! D14   D(1,8,9,3)              0.             -DE/DX =    0.               !
 ! D15   D(7,8,9,2)              0.             -DE/DX =    0.               !
 ! D16   D(7,8,9,3)            180.             -DE/DX =    0.               !
 -----------------------------------------------------------------------------
 GradGradGradGradGradGradGradGradGradGradGradGradGradGradGradGradGradGrad

 1\1\GINC-INDIUM\Freq\RHF\CEP-121G(d)\C3H4N2\RDJ3\06-Sep-2000\0\\#N GEO
 M=ALLCHECK GUESS=TCHECK RHF/CEP-121G(D) FREQ\\1H imidazole C3H4N2 casn
 o=288324\\0,1\N,0.5021469419,0.,1.1389781571\H,0.4967197588,0.,-2.0153
 343393\C,-1.0191994761,0.,-0.5175350158\H,-1.8977443172,0.,-1.12998017
 3\C,-0.8414859097,0.,0.8295489539\H,-1.5912171717,0.,1.5962722287\H,2.
 1821058807,0.,-0.1366832521\C,1.116974586,0.,-0.0015310433\N,0.2548488
 679,0.,-1.0502193659\\Version=IBM-RS6000-G98RevA.6\State=1-A'\HF=-38.1
 45316\RMSD=1.396e-09\RMSF=1.271e-04\Dipole=-0.0840879,0.,-1.5611173\Di
 poleDeriv=-0.5201025,0.,-0.0389261,0.,-0.3489588,0.,0.0738482,0.,-0.66
 62922,0.1914321,0.,-0.0011498,0.,0.3679657,0.,-0.0025074,0.,0.235934,0
 .0274259,0.,-0.3315364,0.,-0.1515071,0.,-0.0630837,0.,0.2277052,-0.003
 5486,0.,-0.051607,0.,0.214284,0.,-0.0719936,0.,0.0395933,0.310318,0.,0
 .0293827,0.,-0.1702938,0.,-0.1193127,0.,0.15796,-0.0221882,0.,0.073495
 8,0.,0.1838418,0.,0.09722,0.,0.0167403,-0.0550388,0.,0.0379695,0.,0.16
 09344,0.,0.0308306,0.,0.0673537,0.2490419,0.,0.0680423,0.,0.0737263,0.
 ,-0.0123184,0.,0.709877,-0.1773397,0.,0.2143291,0.,-0.3299925,0.,0.067
 3169,0.,-0.7888714\Polar=47.236129,0.,25.0654921,-0.3141939,0.,46.3362
 41\PolarDeriv=-11.2769479,0.,-0.787592,-0.9366714,0.,5.8965488,0.,0.52
 8821,0.,0.,2.7566264,0.,6.4404854,0.,2.0309588,2.241016,0.,6.6163305,0
 .7107894,0.,-0.0286386,-1.6548285,0.,1.4304714,0.,0.1988762,0.,0.,-0.7
 596379,0.,-1.0917778,0.,-0.0463349,1.7816089,0.,-8.9108217,1.0190005,0
 .,-0.2781569,-1.5628852,0.,-1.2937948,0.,-3.2395995,0.,0.,-3.8304627,0
 .,-6.949263,0.,-3.6802809,-2.4370757,0.,-5.2394462,-6.6807507,0.,-0.21
 1104,-3.1438968,0.,-2.324916,0.,-0.2802784,0.,0.,0.0998442,0.,-3.03425
 93,0.,0.1674964,-2.8020467,0.,-3.2075687,8.7955306,0.,-0.1561491,3.339
 2491,0.,-2.311937,0.,-0.8964211,0.,0.,3.5416585,0.,7.4118998,0.,3.3276
 063,3.6710805,0.,4.0302818,-4.5775063,0.,-0.1867551,3.4604189,0.,-2.86
 80053,0.,-0.8550829,0.,0.,0.3292804,0.,2.9293494,0.,0.0077376,-3.06941
 54,0.,5.1077736,9.9921326,0.,0.3646754,-0.8234039,0.,0.9955813,0.,0.46
 41249,0.,0.,-0.0194431,0.,-0.925183,0.,0.0290099,1.5981781,0.,-0.37258
 92,6.097894,0.,2.3428908,-0.1188373,0.,0.474242,0.,3.9052099,0.,0.,-0.
 9294706,0.,-6.2869995,0.,-1.2044119,-0.9793475,0.,1.9344104,-4.0801423
 ,0.,-1.0591704,1.4408551,0.,0.0018095,0.,0.1743499,0.,0.,-1.1883953,0.
 ,1.5057481,0.,-0.6317813,-0.0039982,0.,0.0416296\HyperPolar=46.7950597
 ,0.,-2.8612907,0.,-18.7406335,0.,-4.7321017,-36.1956992,0.,-22.1108054
 \PG=CS [SG(C3H4N2)]\NImag=0\\0.55297859,0.,0.11976944,-0.07301971,0.,0
 .68807658,-0.00305467,0.,-0.01020803,0.09625672,0.,0.00791773,0.,0.,0.
 01170325,-0.00418810,0.,-0.00268933,-0.11173425,0.,0.51485085,-0.03381
 543,0.,-0.01164371,0.01029166,0.,-0.00183467,0.81690663,0.,0.01925585,
 0.,0.,-0.00891479,0.,0.,0.13486241,-0.10308015,0.,-0.01982129,0.031193
 13,0.,0.00025753,0.19028018,0.,0.84474636,0.00254604,0.,0.00084856,0.0
 0020043,0.,0.00021344,-0.28574489,0.,-0.15147326,0.30013483,0.,0.00856
 312,0.,0.,-0.00114131,0.,0.,-0.02935489,0.,0.,0.02353060,-0.00435591,0
 .,-0.00618431,-0.00121827,0.,0.00013332,-0.16260525,0.,-0.18531488,0.1
 6677594,0.,0.17478843,-0.27980819,0.,-0.04703505,-0.01043554,0.,0.0000
 6421,-0.12410546,0.,-0.02441908,0.00644840,0.,-0.02478145,0.73914953,0
 .,-0.08135412,0.,0.,0.00197401,0.,0.,-0.08057928,0.,0.,0.00079952,0.,0
 .,0.16274442,-0.04687425,0.,-0.13879312,0.00373460,0.,0.00168148,-0.04
 684497,0.,-0.44985528,0.00148177,0.,0.00296701,-0.17106117,0.,0.904581
 54,-0.01894211,0.,0.02512286,0.00092569,0.,-0.00004220,0.01098743,0.,-
 0.00626218,-0.00029300,0.,0.00082640,-0.21836401,0.,0.15955604,0.23248
 945,0.,-0.00436647,0.,0.,0.00254895,0.,0.,0.00193660,0.,0.,-0.00324781
 ,0.,0.,-0.03849051,0.,0.,0.02877043,-0.00841355,0.,0.01495548,0.001474
 01,0.,0.00027523,0.02314721,0.,-0.00742678,-0.00061631,0.,-0.00008206,
 0.16441665,0.,-0.24394772,-0.17452563,0.,0.24215641,-0.00854321,0.,0.0
 0296287,-0.00057193,0.,-0.00056322,0.00109862,0.,-0.00405817,-0.000439
 43,0.,0.00048081,0.00125795,0.,0.00331558,-0.00037532,0.,-0.00024478,0
 .40585618,0.,-0.00337910,0.,0.,-0.00168998,0.,0.,0.00294404,0.,0.,0.00
 203035,0.,0.,0.00901230,0.,0.,0.00093324,0.,0.,0.02837267,0.03436245,0
 .,0.00250980,0.00075086,0.,0.00041302,-0.00060126,0.,-0.00705028,-0.00
 124403,0.,0.00117989,0.00299919,0.,-0.00527058,0.00164062,0.,0.0007913
 7,-0.04165886,0.,0.07234742,-0.21344840,0.,0.14973082,0.02237746,0.,0.
 01423980,-0.10145297,0.,0.00470522,-0.00364913,0.,0.00450964,-0.089818
 07,0.,0.01933621,-0.00743022,0.,-0.00402113,-0.38470578,0.,0.03836550,
 1.01954727,0.,-0.09214838,0.,0.,-0.00982162,0.,0.,0.01796621,0.,0.,0.0
 0274990,0.,0.,0.01025374,0.,0.,0.00581742,0.,0.,-0.03907746,0.,0.,0.17
 548323,0.15409831,0.,-0.41302033,-0.01890476,0.,-0.01111373,-0.0550762
 2,0.,-0.01717428,0.00580702,0.,-0.00584891,0.10056041,0.,0.01341850,-0
 .00307099,0.,-0.00011344,0.03470174,0.,-0.07476080,-0.11415738,0.,0.75
 122197,0.00208738,0.,-0.03675862,-0.11598982,0.,0.10384498,-0.29416559
 ,0.,0.06311432,-0.01920324,0.,0.02036808,-0.02432462,0.,0.07735618,0.0
 0100209,0.,-0.00121647,-0.01357708,0.,-0.03461448,-0.24142017,0.,-0.10
 395813,0.70559106,0.,0.02574193,0.,0.,-0.00257626,0.,0.,-0.05811616,0.
 ,0.,-0.00392948,0.,0.,0.01563992,0.,0.,0.00609815,0.,0.,0.00085395,0.,
 0.,-0.07122305,0.,0.,0.08751100,0.05147091,0.,-0.12503349,0.10491271,0
 .,-0.50380839,0.06517867,0.,-0.15836110,-0.02179313,0.,0.01836151,-0.0
 0074371,0.,-0.08478184,-0.00324493,0.,-0.00660850,0.00506402,0.,0.0098
 4016,-0.11270868,0.,-0.24260900,-0.08813586,0.,1.09300064\\-0.00025647
 ,0.,-0.00013768,0.00001729,0.,-0.00001217,-0.00018245,0.,0.00023504,-0
 .00001468,0.,-0.00003717,0.00026886,0.,0.00009555,-0.00007387,0.,0.000
 02307,0.00004284,0.,-0.00001883,0.00004254,0.,0.00018508,0.00015595,0.
 ,-0.00033288\\\@

 I HAVE NOT FAILED, I HAVE ONLY DISCOVERED 10,000
 WAYS THAT DIDN'T WORK.  -- THOMAS A. EDISON
 Job cpu time:  0 days  0 hours  6 minutes  5.2 seconds.
 File lengths (MBytes):  RWF=   22 Int=    0 D2E=    0 Chk=    8 Scr=    1
 Normal termination of Gaussian 98.
