 Gaussian 98, Revision A.4,
 Gaussian 98:  x86-Linux-G98RevA.4 11-Sep-1998

 -------------------
 #HF/6-31G* opt freq
 -------------------

 --------------------------------
 1H imidazole C3H4N2 casno=288324
 --------------------------------
 Symbolic Z-matrix:
 Charge =  0 Multiplicity = 1

 SCF Done:  E(RHF) =  -224.763306312     A.U. after   13 cycles
 SCF Done:  E(RHF) =  -224.809334409     A.U. after   13 cycles
 SCF Done:  E(RHF) =  -224.814050566     A.U. after   13 cycles
 SCF Done:  E(RHF) =  -224.814346718     A.U. after   11 cycles
 SCF Done:  E(RHF) =  -224.814425039     A.U. after   11 cycles
 SCF Done:  E(RHF) =  -224.814429221     A.U. after    9 cycles
 Optimization completed.
    -- Stationary point found.
 Normal termination of Gaussian 98.

 -----------------------------------------------
 #N Geom=AllCheck Guess=TCheck RHF/6-31G(d) Freq
 -----------------------------------------------

 1H imidazole C3H4N2 casno=288324
 --------------------------------
 Redundant internal coordinates taken from checkpointfile:
 /wrk/rdj3/Gau-10073.chk
 Charge =  0 Multiplicity = 1

                         Standard orientation:
 ---------------------------------------------------------------------
 Center     Atomic     Atomic              Coordinates (Angstroms)
 Number     Number      Type              X           Y           Z
 ---------------------------------------------------------------------
    1          7             0       -0.741059   -0.965959    0.000000
    2          1             0       -0.012734    2.088247    0.000000
    3          6             0        1.109862    0.288272    0.000000
    4          1             0        2.103339    0.681436    0.000000
    5          6             0        0.630182   -0.973920    0.000000
    6          1             0        1.182239   -1.890444    0.000000
    7          1             0       -2.077162    0.655969    0.000000
    8          6             0       -1.074756    0.279096    0.000000
    9          7             0        0.000000    1.095117    0.000000
 ---------------------------------------------------------------------

 SCF Done:  E(RHF) =  -224.814429221     A.U. after    1 cycles

  The electronic state is 1-A'.
 Alpha  occ. eigenvalues --  -15.61963 -15.53669 -11.28737 -11.25455 -11.23352
 Alpha  occ. eigenvalues --   -1.34654  -1.16675  -1.00911  -0.82709  -0.79804
 Alpha  occ. eigenvalues --   -0.75973  -0.60845  -0.59945  -0.59747  -0.56695
 Alpha  occ. eigenvalues --   -0.42787  -0.39315  -0.31930
 Alpha virt. eigenvalues --    0.19652   0.22096   0.25074   0.28563   0.30017
 Alpha virt. eigenvalues --    0.32042   0.39877   0.42016   0.49012   0.51783
 Alpha virt. eigenvalues --    0.68646   0.71385   0.76548   0.80600   0.80690

  Exact polarizability:  43.713  -0.796  43.639   0.000   0.000  17.186
 Approx polarizability:  40.767   0.578  43.812   0.000   0.000  19.067

                     1                      2                      3
                    A"                     A"                     A"
 Frequencies --   535.0609               692.9992               733.4454
 Red. masses --     1.4457                 2.2967                 2.9238
 Frc consts  --     0.2439                 0.6499                 0.9267
 IR Inten    --   145.3955                 7.2495                11.6116
 Raman Activ --     1.2442                 0.8806                 0.3939

                     4                      5                      6
                    A"                     A"                     A'
 Frequencies --   838.9894               965.1294               984.7556
 Red. masses --     1.2393                 1.3893                 5.6007
 Frc consts  --     0.5140                 0.7625                 3.2000
 IR Inten    --    45.6349                15.9308                 7.5934
 Raman Activ --     1.2195                 0.0375                 2.1579

                     7                      8                      9
                    A"                     A'                     A'
 Frequencies --   999.2445              1021.6508              1157.8247
 Red. masses --     1.3586                 4.7391                 1.7019
 Frc consts  --     0.7992                 2.9144                 1.3442
 IR Inten    --     0.2619                 1.7106                55.9528
 Raman Activ --     1.4207                 1.8617                 2.3152

                    10                     11                     12
                    A'                     A'                     A'
 Frequencies --  1191.4996              1234.8387              1257.9347
 Red. masses --     1.5988                 3.4683                 1.5615
 Frc consts  --     1.3373                 3.1159                 1.4558
 IR Inten    --    13.2650                 4.5123                 4.9185
 Raman Activ --     1.5869                10.4749                19.9628

                    13                     14                     15
                    A'                     A'                     A'
 Frequencies --  1411.4760              1505.2719              1587.4207
 Red. masses --     1.3645                 3.2358                 2.5482
 Frc consts  --     1.6017                 4.3197                 3.7833
 IR Inten    --     0.5669                10.5470                26.5549
 Raman Activ --     6.8759                22.7385                11.5403

                    16                     17                     18
                    A'                     A'                     A'
 Frequencies --  1665.4505              1744.6252              3443.7301
 Red. masses --     3.1740                 3.5999                 1.0935
 Frc consts  --     5.1870                 6.4557                 7.6409
 IR Inten    --    26.9817                26.6684                13.2257
 Raman Activ --    17.4176                 1.2129                45.9903

                    19                     20                     21
                    A'                     A'                     A'
 Frequencies --  3445.9563              3474.5550              3921.3221
 Red. masses --     1.0978                 1.1071                 1.0827
 Frc consts  --     7.6804                 7.8748                 9.8091
 IR Inten    --     1.2802                 4.2194                89.6255
 Raman Activ --    91.3737               100.4209                78.3331

 - Thermochemistry -
 -------------------
 Temperature   298.150 Kelvin.  Pressure   1.00000 Atm.
 Atom  1 has atomic number  7 and mass  14.00307

 Molecular mass:    68.03745 amu.
 Principal axes and moments of inertia in atomic units:
                           1         2         3
     EIGENVALUES --   181.78255 187.22022 369.00277
           X            0.50548   0.86284   0.00000
           Y            0.86284  -0.50548   0.00000
           Z            0.00000   0.00000   1.00000
 THIS MOLECULE IS AN ASYMMETRIC TOP.
 ROTATIONAL SYMMETRY NUMBER  1.
 ROTATIONAL TEMPERATURES (KELVIN)      0.47647     0.46263     0.23472
 ROTATIONAL CONSTANTS (GHZ)            9.92802     9.63967     4.89086
 Zero-point vibrational energy     202247.8 (Joules/Mol)
                                   48.33838 (Kcal/Mol)
 WARNING-- EXPLICIT CONSIDERATION OF   1 DEGREES OF FREEDOM AS
           VIBRATIONS MAY CAUSE SIGNIFICANT ERROR
 VIBRATIONAL TEMPERATURES:    769.83   997.07  1055.26  1207.11  1388.60
          (KELVIN)           1416.84  1437.68  1469.92  1665.84  1714.29
                             1776.65  1809.88  2030.79  2165.74  2283.93
                             2396.20  2510.11  4954.73  4957.93  4999.08
                             5641.88

 Zero-point correction=                           0.077032 (Hartree/Particle)
 Thermal correction to Energy=                    0.080584
 Thermal correction to Enthalpy=                  0.081528
 Thermal correction to Gibbs Free Energy=         0.050860
 Sum of electronic and zero-point Energies=           -224.737397
 Sum of electronic and thermal Energies=              -224.733845
 Sum of electronic and thermal Enthalpies=            -224.732901
 Sum of electronic and thermal Free Energies=         -224.763569

                     E (Thermal)             CV                S
                      KCAL/MOL        CAL/MOL-KELVIN    CAL/MOL-KELVIN
 TOTAL                   50.567             11.976             64.546
 ELECTRONIC               0.000              0.000              0.000
 TRANSLATIONAL            0.889              2.981             38.570
 ROTATIONAL               0.889              2.981             24.044
 VIBRATIONAL             48.790              6.015              1.931
 VIBRATION  1             0.890              1.172              0.576
                       Q            LOG10(Q)             LN(Q)
 TOTAL BOT       0.403604D-23        -23.394044        -53.866777
 TOTAL V=0       0.109150D+13         12.038024         27.718574
 VIB (BOT)       0.456097D-35        -35.340943        -81.375529
 VIB (BOT)  1    0.297490D+00         -0.526528         -1.212376
 VIB (V=0)       0.123346D+01          0.091125          0.209822
 VIB (V=0)  1    0.108181D+01          0.034150          0.078633
 ELECTRONIC      0.100000D+01          0.000000          0.000000
 TRANSLATIONAL   0.220588D+08          7.343582         16.909224
 ROTATIONAL      0.401159D+05          4.603317         10.599528
 ***** Axes restored to original set *****
 -------------------------------------------------------------------
 Center     Atomic                   Forces (Hartrees/Bohr)
 Number     Number              X              Y              Z
 -------------------------------------------------------------------
    1          7           0.000234985    0.000000000    0.000125999
    2          1          -0.000011093    0.000000000    0.000004604
    3          6           0.000145914    0.000000000   -0.000235586
    4          1           0.000009647    0.000000000    0.000036323
    5          6          -0.000222319    0.000000000   -0.000076337
    6          1           0.000067552    0.000000000   -0.000027323
    7          1          -0.000043209    0.000000000    0.000023013
    8          6          -0.000023998    0.000000000   -0.000155346
    9          7          -0.000157478    0.000000000    0.000304654
 -------------------------------------------------------------------
 Cartesian Forces:  Max     0.000304654 RMS     0.000114621

 GradGradGradGradGradGradGradGradGradGradGradGradGradGradGradGradGradGrad
 Berny optimization.
 Internal  Forces:  Max     0.000232266 RMS     0.000063489
 Search for a local minimum.
 Step number   1 out of a maximum of  48
 All quantities printed in internal units (Hartrees-Bohrs-Radians)
 Second derivative matrix not updated -- analytic derivatives used.
     Eigenvalues ---    0.00536   0.01459   0.02675   0.03377   0.06857
     Eigenvalues ---    0.07146   0.11617   0.12339   0.12853   0.13958
     Eigenvalues ---    0.26555   0.27876   0.40292   0.41709   0.42003
     Eigenvalues ---    0.42248   0.47888   0.50228   0.54698   0.56751
     Eigenvalues ---    0.697591000.000001000.000001000.000001000.00000
     Eigenvalues --- 1000.000001000.000001000.000001000.000001000.00000
     Eigenvalues --- 1000.000001000.000001000.000001000.000001000.00000
     Eigenvalues --- 1000.000001000.000001000.00000
 Angle between quadratic step and forces=  23.52 degrees.
 Linear search not attempted -- first point.
 Iteration  1 RMS(Cart)=  0.00014045 RMS(Int)=  0.00000002
 Iteration  2 RMS(Cart)=  0.00000002 RMS(Int)=  0.00000001
 Variable       Old X    -DE/DX   Delta X   Delta X   Delta X     New X
                                 (Linear)    (Quad)   (Total)
    R1        2.59131   0.00019   0.00000   0.00049   0.00049   2.59180
    R2        2.43585  -0.00002   0.00000   0.00005   0.00005   2.43590
    R3        1.87690  -0.00001   0.00000   0.00000   0.00000   1.87690
    R4        2.01907  -0.00003   0.00000  -0.00007  -0.00007   2.01900
    R5        2.55164   0.00001   0.00000   0.00004   0.00004   2.55168
    R6        2.59299  -0.00023   0.00000  -0.00054  -0.00054   2.59245
    R7        2.02190  -0.00007   0.00000  -0.00017  -0.00017   2.02174
    R8        2.02373  -0.00005   0.00000  -0.00011  -0.00011   2.02362
    R9        2.55007  -0.00009   0.00000  -0.00024  -0.00024   2.54983
    A1        1.83847  -0.00012   0.00000  -0.00027  -0.00027   1.83819
    A2        2.31081   0.00000   0.00000  -0.00021  -0.00021   2.31060
    A3        2.13616   0.00005   0.00000   0.00030   0.00030   2.13646
    A4        1.83622  -0.00004   0.00000  -0.00009  -0.00009   1.83613
    A5        1.92817   0.00002   0.00000   0.00001   0.00001   1.92818
    A6        2.11874  -0.00004   0.00000  -0.00030  -0.00030   2.11844
    A7        2.23628   0.00002   0.00000   0.00029   0.00029   2.23657
    A8        2.19228  -0.00003   0.00000  -0.00012  -0.00012   2.19216
    A9        1.95833   0.00002   0.00000   0.00002   0.00002   1.95835
   A10        2.13257   0.00001   0.00000   0.00010   0.00010   2.13267
   A11        2.21222  -0.00007   0.00000  -0.00021  -0.00021   2.21201
   A12        2.20738  -0.00006   0.00000  -0.00013  -0.00013   2.20724
   A13        1.86359   0.00013   0.00000   0.00034   0.00034   1.86393
    D1        0.00000   0.00000   0.00000   0.00000   0.00000   0.00000
    D2        3.14159   0.00000   0.00000   0.00000   0.00000   3.14159
    D3        3.14159   0.00000   0.00000   0.00000   0.00000   3.14159
    D4        0.00000   0.00000   0.00000   0.00000   0.00000   0.00000
    D5        3.14159   0.00000   0.00000   0.00000   0.00000   3.14159
    D6        0.00000   0.00000   0.00000   0.00000   0.00000   0.00000
    D7        0.00000   0.00000   0.00000   0.00000   0.00000   0.00000
    D8        3.14159   0.00000   0.00000   0.00000   0.00000   3.14159
    D9        0.00000   0.00000   0.00000   0.00000   0.00000   0.00000
   D10        3.14159   0.00000   0.00000   0.00000   0.00000   3.14159
   D11        3.14159   0.00000   0.00000   0.00000   0.00000   3.14159
   D12        0.00000   0.00000   0.00000   0.00000   0.00000   0.00000
   D13        3.14159   0.00000   0.00000   0.00000   0.00000   3.14159
   D14        0.00000   0.00000   0.00000   0.00000   0.00000   0.00000
   D15        0.00000   0.00000   0.00000   0.00000   0.00000   0.00000
   D16        3.14159   0.00000   0.00000   0.00000   0.00000   3.14159
         Item               Value     Threshold  Converged?
 Maximum Force            0.000232     0.000450     YES
 RMS     Force            0.000063     0.000300     YES
 Maximum Displacement     0.000369     0.001800     YES
 RMS     Displacement     0.000140     0.001200     YES
 Predicted change in Energy=-1.992924D-07
 Optimization completed.
    -- Stationary point found.
                         ----------------------------
                         !   Optimized Parameters   !
                         ! (Angstroms and Degrees)  !
 ------------------------                            -------------------------
 ! Name  Definition              Value          Derivative Info.             !
 -----------------------------------------------------------------------------
 ! R1    R(1,5)                  1.3713         -DE/DX =    0.0002           !
 ! R2    R(1,8)                  1.289          -DE/DX =    0.               !
 ! R3    R(2,9)                  0.9932         -DE/DX =    0.               !
 ! R4    R(3,4)                  1.0684         -DE/DX =    0.               !
 ! R5    R(3,5)                  1.3503         -DE/DX =    0.               !
 ! R6    R(3,9)                  1.3721         -DE/DX =   -0.0002           !
 ! R7    R(5,6)                  1.0699         -DE/DX =   -0.0001           !
 ! R8    R(7,8)                  1.0709         -DE/DX =    0.               !
 ! R9    R(8,9)                  1.3494         -DE/DX =   -0.0001           !
 ! A1    A(5,1,8)              105.3363         -DE/DX =   -0.0001           !
 ! A2    A(4,3,5)              132.3996         -DE/DX =    0.               !
 ! A3    A(4,3,9)              122.3928         -DE/DX =    0.               !
 ! A4    A(5,3,9)              105.2076         -DE/DX =    0.               !
 ! A5    A(1,5,3)              110.476          -DE/DX =    0.               !
 ! A6    A(1,5,6)              121.3948         -DE/DX =    0.               !
 ! A7    A(3,5,6)              128.1292         -DE/DX =    0.               !
 ! A8    A(1,8,7)              125.6084         -DE/DX =    0.               !
 ! A9    A(1,8,9)              112.2043         -DE/DX =    0.               !
 ! A10   A(7,8,9)              122.1873         -DE/DX =    0.               !
 ! A11   A(2,9,3)              126.7509         -DE/DX =   -0.0001           !
 ! A12   A(2,9,8)              126.4734         -DE/DX =   -0.0001           !
 ! A13   A(3,9,8)              106.7757         -DE/DX =    0.0001           !
 ! D1    D(8,1,5,3)              0.             -DE/DX =    0.               !
 ! D2    D(8,1,5,6)            180.             -DE/DX =    0.               !
 ! D3    D(5,1,8,7)            180.             -DE/DX =    0.               !
 ! D4    D(5,1,8,9)              0.             -DE/DX =    0.               !
 ! D5    D(4,3,5,1)            180.             -DE/DX =    0.               !
 ! D6    D(4,3,5,6)              0.             -DE/DX =    0.               !
 ! D7    D(9,3,5,1)              0.             -DE/DX =    0.               !
 ! D8    D(9,3,5,6)            180.             -DE/DX =    0.               !
 ! D9    D(4,3,9,2)              0.             -DE/DX =    0.               !
 ! D10   D(4,3,9,8)            180.             -DE/DX =    0.               !
 ! D11   D(5,3,9,2)            180.             -DE/DX =    0.               !
 ! D12   D(5,3,9,8)              0.             -DE/DX =    0.               !
 ! D13   D(1,8,9,2)            180.             -DE/DX =    0.               !
 ! D14   D(1,8,9,3)              0.             -DE/DX =    0.               !
 ! D15   D(7,8,9,2)              0.             -DE/DX =    0.               !
 ! D16   D(7,8,9,3)            180.             -DE/DX =    0.               !
 -----------------------------------------------------------------------------
 GradGradGradGradGradGradGradGradGradGradGradGradGradGradGradGradGradGrad

 1\1\GINC-QCHEM4\Freq\RHF\6-31G(d)\C3H4N2\RDJ3\04-Nov-1998\0\\#N GEOM=A
 LLCHECK GUESS=TCHECK RHF/6-31G(D) FREQ\\1H imidazole C3H4N2 casno=2883
 24\\0,1\N,0.4985006827,0.,1.1107392411\H,0.4936395241,0.,-2.0291031736
 \C,-1.0135540176,0.,-0.5362867082\H,-1.8896821808,0.,-1.1478199425\C,-
 0.8376644827,0.,0.8024758257\H,-1.5860799836,0.,1.567104533\H,2.172422
 7878,0.,-0.1596185829\C,1.1101458319,0.,-0.0238998153\N,0.2523758691,0
 .,-1.0656390478\\Version=x86-Linux-G98RevA.4\State=1-A'\HF=-224.814429
 2\RMSD=8.332e-10\RMSF=1.146e-04\Dipole=-0.10478,0.,-1.5156419\DipoleDe
 riv=-0.5316906,0.,-0.0090762,0.,-0.3794793,0.,0.0864927,0.,-0.6543896,
 0.2008879,0.,-0.0008518,0.,0.3800707,0.,-0.0066481,0.,0.256533,0.02696
 64,0.,-0.2963969,0.,-0.1092682,0.,-0.0146597,0.,0.2313518,0.0052707,0.
 ,-0.0471715,0.,0.1868562,0.,-0.0631811,0.,0.0417063,0.2838927,0.,-0.02
 94024,0.,-0.1035193,0.,-0.1389438,0.,0.1431385,-0.0178654,0.,0.076047,
 0.,0.1517063,0.,0.082728,0.,0.0164741,-0.04877,0.,0.0328164,0.,0.13838
 04,0.,0.0330924,0.,0.0680813,0.2780038,0.,0.0845728,0.,0.1265536,0.,-0
 .0496339,0.,0.6676558,-0.1966955,0.,0.1894626,0.,-0.3913004,0.,0.07075
 34,0.,-0.7705512\Polar=44.0658914,0.,17.1857571,-0.6948661,0.,43.28624
 23\PolarDeriv=-9.0632035,0.,-0.2690047,-0.6817579,0.,5.6763144,0.,0.44
 74525,0.,0.,3.1026892,0.,5.6297653,0.,0.2758224,2.0499546,0.,6.4734764
 ,0.6960669,0.,-0.0317959,-1.6059226,0.,1.499079,0.,0.2557285,0.,0.,-0.
 9377309,0.,-0.9279775,0.,-0.063705,1.7670562,0.,-8.6867796,0.4846742,0
 .,0.2889257,-1.0352499,0.,-1.6129571,0.,-3.1401681,0.,0.,-4.0881704,0.
 ,-5.0582689,0.,-0.9300774,-1.7761889,0.,-3.4773004,-6.5692,0.,-0.37500
 33,-3.0950972,0.,-1.9278899,0.,-0.8633864,0.,0.,-0.2669628,0.,-2.84833
 64,0.,-0.1621462,-2.8364109,0.,-3.1768471,7.3076523,0.,0.1571407,2.853
 6485,0.,-1.8486977,0.,-0.5460807,0.,0.,4.0604867,0.,5.7398953,0.,0.532
 3236,3.3131531,0.,2.3881961,-4.5576029,0.,-0.3038063,3.5128878,0.,-2.7
 689548,0.,-1.2516521,0.,0.,0.688864,0.,2.6180799,0.,0.2724046,-3.09550
 91,0.,5.0694057,9.877894,0.,0.4482029,-0.6471383,0.,0.778534,0.,1.1666
 3,0.,0.,-0.0451491,0.,-0.9649501,0.,-0.0479105,1.650304,0.,-0.3833007,
 4.5569078,0.,0.6190744,-0.2198257,0.,0.2518442,0.,3.6041501,0.,0.,-1.0
 178386,0.,-4.9643819,0.,-0.268791,-0.6490642,0.,1.9322965,-2.7331888,0
 .,-0.5337336,0.9184553,0.,-0.0472721,0.,0.3273263,0.,0.,-1.4961882,0.,
 0.7761744,0.,0.3920795,-0.4232948,0.,-0.1391469\HyperPolar=32.8358962,
 0.,1.1262265,0.,-13.5603723,0.,-3.2340655,-26.2679749,0.,-26.0484788\P
 G=CS [SG(C3H4N2)]\NImag=0\\0.57173766,0.,0.12350086,-0.08008165,0.,0.7
 1652193,-0.00302567,0.,-0.01017390,0.09877355,0.,0.00789351,0.,0.,0.01
 195909,-0.00420495,0.,-0.00276350,-0.11178314,0.,0.51807027,-0.0349176
 2,0.,-0.01201987,0.01063356,0.,-0.00189805,0.83775969,0.,0.01926383,0.
 ,0.,-0.00894190,0.,0.,0.13840025,-0.10605325,0.,-0.02088358,0.03191936
 ,0.,-0.00019259,0.19080520,0.,0.88219014,0.00242883,0.,0.00081426,0.00
 003840,0.,0.00022871,-0.28908182,0.,-0.15284275,0.30448234,0.,0.008952
 54,0.,0.,-0.00116896,0.,0.,-0.02992130,0.,0.,0.02415541,-0.00448048,0.
 ,-0.00620410,-0.00125826,0.,0.00016858,-0.16334042,0.,-0.18837163,0.16
 912932,0.,0.17812335,-0.28812448,0.,-0.04916683,-0.01024617,0.,0.00019
 263,-0.12757227,0.,-0.02696060,0.00663561,0.,-0.02586547,0.75547309,0.
 ,-0.08384267,0.,0.,0.00215395,0.,0.,-0.08150066,0.,0.,0.00042479,0.,0.
 ,0.16572513,-0.04963768,0.,-0.14103755,0.00399317,0.,0.00145584,-0.049
 95236,0.,-0.47791803,0.00063576,0.,0.00247570,-0.16707693,0.,0.9419404
 0,-0.02017479,0.,0.02504553,0.00091992,0.,-0.00003574,0.01145350,0.,-0
 .00554365,-0.00027731,0.,0.00090845,-0.22060217,0.,0.16064235,0.235565
 23,0.,-0.00448829,0.,0.,0.00253091,0.,0.,0.00142713,0.,0.,-0.00324590,
 0.,0.,-0.03873990,0.,0.,0.02916248,-0.00782117,0.,0.01523856,0.0014578
 3,0.,0.00026537,0.02401796,0.,-0.00840659,-0.00066634,0.,-0.00021119,0
 .16475424,0.,-0.24737118,-0.17655485,0.,0.24642289,-0.00911235,0.,0.00
 435742,-0.00067246,0.,-0.00068265,0.00091956,0.,-0.00395584,-0.0004460
 8,0.,0.00045768,0.00117491,0.,0.00311475,-0.00042057,0.,-0.00020631,0.
 41182003,0.,-0.00366375,0.,0.,-0.00170671,0.,0.,0.00325870,0.,0.,0.002
 01029,0.,0.,0.00919144,0.,0.,0.00094145,0.,0.,0.02877247,0.03508354,0.
 ,0.00214112,0.00070358,0.,0.00036061,-0.00060386,0.,-0.00699204,-0.001
 24233,0.,0.00115067,0.00300468,0.,-0.00511514,0.00164302,0.,0.00074454
 ,-0.04207204,0.,0.07372387,-0.21945674,0.,0.15877743,0.02308410,0.,0.0
 1491274,-0.10346857,0.,0.00522830,-0.00380887,0.,0.00456106,-0.0916989
 7,0.,0.01865145,-0.00741312,0.,-0.00404128,-0.38858348,0.,0.03845202,1
 .04052085,0.,-0.09497971,0.,0.,-0.00975575,0.,0.,0.01862800,0.,0.,0.00
 299993,0.,0.,0.01136321,0.,0.,0.00570121,0.,0.,-0.03931919,0.,0.,0.179
 66763,0.16484807,0.,-0.43466672,-0.01927641,0.,-0.01177401,-0.05632432
 ,0.,-0.01828253,0.00572159,0.,-0.00582573,0.10290638,0.,0.01312226,-0.
 00305197,0.,-0.00009304,0.03452546,0.,-0.07624506,-0.11722628,0.,0.787
 11631,0.00064517,0.,-0.03755239,-0.11950523,0.,0.10327044,-0.30572603,
 0.,0.06740323,-0.01997109,0.,0.01988813,-0.02503955,0.,0.07962950,0.00
 094931,0.,-0.00094008,-0.01467956,0.,-0.03496861,-0.24917520,0.,-0.112
 12252,0.73250219,0.,0.02736368,0.,0.,-0.00296414,0.,0.,-0.06061405,0.,
 0.,-0.00420680,0.,0.,0.01522471,0.,0.,0.00671090,0.,0.,0.00051530,0.,0
 .,-0.07430533,0.,0.,0.09227571,0.05234756,0.,-0.12834616,0.10441777,0.
 ,-0.50559057,0.06931572,0.,-0.16114314,-0.02177822,0.,0.01869435,-0.00
 178809,0.,-0.08755229,-0.00305315,0.,-0.00658935,0.00446153,0.,0.01023
 143,-0.11931544,0.,-0.25335148,-0.08460769,0.,1.11364719\\-0.00023498,
 0.,-0.00012600,0.00001109,0.,-0.00000460,-0.00014591,0.,0.00023559,-0.
 00000965,0.,-0.00003632,0.00022232,0.,0.00007634,-0.00006755,0.,0.0000
 2732,0.00004321,0.,-0.00002301,0.00002400,0.,0.00015535,0.00015748,0.,
 -0.00030465\\\@

 THERE ARE TWO THINGS THAT EVERYBODY THINKS THEY CAN DO BETTER THAN
 ANYONE ELSE - PUNCH THE FIRE, AND EDIT A DAILY PAPER.
 -- UNCLE ESEK, "CENTURY MAGAZINE", 1885
 Job cpu time:  0 days  0 hours  8 minutes 56.9 seconds.
 File lengths (MBytes):  RWF=   14 Int=    0 D2E=    0 Chk=    3 Scr=    1
 Normal termination of Gaussian 98.
