 Gaussian 98, Revision A.6,
 Gaussian 98:  IBM-RS6000-G98RevA.6 19-Oct-1998

 --------------------
 #HF/CEP-31G opt freq
 --------------------

 --------------------------------
 1H imidazole C3H4N2 casno=288324
 --------------------------------
 Symbolic Z-matrix:
 Charge =  0 Multiplicity = 1

 SCF Done:  E(RHF) =  -37.9524616011     A.U. after   13 cycles
 SCF Done:  E(RHF) =  -38.0149533513     A.U. after   13 cycles
 SCF Done:  E(RHF) =  -38.0254726310     A.U. after   13 cycles
 SCF Done:  E(RHF) =  -38.0258442046     A.U. after   11 cycles
 SCF Done:  E(RHF) =  -38.0259738946     A.U. after   12 cycles
 SCF Done:  E(RHF) =  -38.0259776792     A.U. after   10 cycles
 Optimization completed.
    -- Stationary point found.
 Normal termination of Gaussian 98.

 ----------------------------------------------
 #N Geom=AllCheck Guess=TCheck RHF/CEP-31G Freq
 ----------------------------------------------

 1H imidazole C3H4N2 casno=288324
 --------------------------------
 Redundant internal coordinates taken from checkpointfile:
 /wrk/rdj3/Gau-15362.chk
 Charge =  0 Multiplicity = 1

                         Standard orientation:
 ---------------------------------------------------------------------
 Center     Atomic     Atomic              Coordinates (Angstroms)
 Number     Number      Type              X           Y           Z
 ---------------------------------------------------------------------
    1          7             0       -0.761027   -0.999039    0.000000
    2          1             0       -0.003968    2.088932    0.000000
    3          6             0        1.124729    0.270647    0.000000
    4          1             0        2.123440    0.653379    0.000000
    5          6             0        0.634186   -1.021683    0.000000
    6          1             0        1.179048   -1.942102    0.000000
    7          1             0       -2.109607    0.643262    0.000000
    8          6             0       -1.104859    0.272400    0.000000
    9          7             0        0.000000    1.093253    0.000000
 ---------------------------------------------------------------------

 SCF Done:  E(RHF) =  -38.0259776792     A.U. after    1 cycles

  The electronic state is 1-A'.
 Alpha  occ. eigenvalues --   -1.36418  -1.18631  -1.02740  -0.83928  -0.80663
 Alpha  occ. eigenvalues --   -0.76837  -0.61227  -0.60898  -0.59944  -0.57738
 Alpha  occ. eigenvalues --   -0.42344  -0.39888  -0.32856
 Alpha virt. eigenvalues --    0.15723   0.21015   0.21572   0.26559   0.27269
 Alpha virt. eigenvalues --    0.30481   0.32100   0.37113   0.38134   0.41872
 Alpha virt. eigenvalues --    0.46876   0.47418   0.49876   0.51267   0.52061

  Exact polarizability:  44.246  -0.065  45.278   0.000   0.000  20.832
 Approx polarizability:  40.477   0.959  44.606   0.000   0.000  18.912

                     1                      2                      3
                    A"                     A"                     A"
 Frequencies --   676.0670               706.0955               725.9373
 Red. masses --     3.2908                 1.1700                 3.0421
 Frc consts  --     0.8862                 0.3437                 0.9445
 IR Inten    --    20.2934               211.7141                 5.2589
 Raman Activ --     1.9323                 0.0923                 0.4952

                     4                      5                      6
                    A"                     A"                     A'
 Frequencies --   869.7379               979.1673               988.1815
 Red. masses --     1.2492                 1.3831                 5.8565
 Frc consts  --     0.5568                 0.7813                 3.3695
 IR Inten    --    69.0357                22.3122                 8.7527
 Raman Activ --     6.2075                 5.0826                 4.0780

                     7                      8                      9
                    A'                     A"                     A'
 Frequencies --  1016.5607              1019.4523              1138.9518
 Red. masses --     4.8521                 1.3781                 1.7853
 Frc consts  --     2.9543                 0.8439                 1.3645
 IR Inten    --     3.6874                 0.3795                73.4980
 Raman Activ --     4.0342                 5.1368                 3.3783

                    10                     11                     12
                    A'                     A'                     A'
 Frequencies --  1180.8887              1205.0734              1252.6456
 Red. masses --     1.7519                 4.7213                 1.4049
 Frc consts  --     1.4394                 4.0396                 1.2988
 IR Inten    --    20.6330                 2.7025                 1.6568
 Raman Activ --     2.3222                22.7568                15.9968

                    13                     14                     15
                    A'                     A'                     A'
 Frequencies --  1380.7220              1468.7281              1545.8068
 Red. masses --     1.3992                 3.1056                 2.2882
 Frc consts  --     1.5716                 3.9471                 3.2214
 IR Inten    --     1.4009                 6.4787                25.0863
 Raman Activ --    10.6410                27.9154                10.0874

                    16                     17                     18
                    A'                     A'                     A'
 Frequencies --  1619.7523              1696.5230              3481.6212
 Red. masses --     3.0868                 2.9477                 1.0928
 Frc consts  --     4.7716                 4.9987                 7.8045
 IR Inten    --    24.2358                21.2886                 5.0098
 Raman Activ --    35.5991                 6.2156                49.1604

                    19                     20                     21
                    A'                     A'                     A'
 Frequencies --  3496.2816              3512.4713              3955.3634
 Red. masses --     1.1012                 1.1121                 1.0842
 Frc consts  --     7.9313                 8.0842                 9.9937
 IR Inten    --    10.0378                 6.3123                95.7215
 Raman Activ --    42.4393               123.9440                81.0197

 - Thermochemistry -
 -------------------
 Temperature   298.150 Kelvin.  Pressure   1.00000 Atm.
 Atom  1 has atomic number  7 and mass  14.00307

 Molecular mass:    68.03745 amu.
 Principal axes and moments of inertia in atomic units:
                           1         2         3
     EIGENVALUES --   188.78461 193.61363 382.39824
           X            0.46510   0.88526   0.00000
           Y            0.88526  -0.46510   0.00000
           Z            0.00000   0.00000   1.00000
 THIS MOLECULE IS AN ASYMMETRIC TOP.
 ROTATIONAL SYMMETRY NUMBER  1.
 ROTATIONAL TEMPERATURES (KELVIN)      0.45879     0.44735     0.22650
 ROTATIONAL CONSTANTS (GHZ)            9.55979     9.32135     4.71953
 Zero-point vibrational energy     202862.9 (Joules/Mol)
                                   48.48540 (Kcal/Mol)
 VIBRATIONAL TEMPERATURES:    972.70  1015.91  1044.46  1251.35  1408.80
          (KELVIN)           1421.76  1462.60  1466.76  1638.69  1699.03
                             1733.82  1802.27  1986.54  2113.16  2224.06
                             2330.45  2440.90  5009.25  5030.34  5053.63
                             5690.85

 Zero-point correction=                           0.077266 (Hartree/Particle)
 Thermal correction to Energy=                    0.080735
 Thermal correction to Enthalpy=                  0.081679
 Thermal correction to Gibbs Free Energy=         0.051085
 Sum of electronic and zero-point Energies=            -37.948711
 Sum of electronic and thermal Energies=               -37.945243
 Sum of electronic and thermal Enthalpies=             -37.944299
 Sum of electronic and thermal Free Energies=          -37.974893

                     E (Thermal)             CV                S
                      KCAL/MOL        CAL/MOL-KELVIN    CAL/MOL-KELVIN
 TOTAL                   50.662             11.672             64.390
 ELECTRONIC               0.000              0.000              0.000
 TRANSLATIONAL            0.889              2.981             38.570
 ROTATIONAL               0.889              2.981             24.151
 VIBRATIONAL             48.884              5.710              1.669
                       Q            LOG10(Q)             LN(Q)
 TOTAL BOT       0.318247D-23        -23.497236        -54.104384
 TOTAL V=0       0.110307D+13         12.042604         27.729121
 VIB (BOT)       0.340897D-35        -35.467377        -81.666653
 VIB (V=0)       0.118158D+01          0.072463          0.166853
 ELECTRONIC      0.100000D+01          0.000000          0.000000
 TRANSLATIONAL   0.220588D+08          7.343582         16.909224
 ROTATIONAL      0.423213D+05          4.626559         10.653045
 ***** Axes restored to original set *****
 -------------------------------------------------------------------
 Center     Atomic                   Forces (Hartrees/Bohr)
 Number     Number              X              Y              Z
 -------------------------------------------------------------------
    1          7           0.000247796    0.000000000    0.000070879
    2          1          -0.000019289    0.000000000   -0.000001800
    3          6           0.000211847    0.000000000   -0.000110938
    4          1          -0.000015381    0.000000000   -0.000012535
    5          6          -0.000221311    0.000000000   -0.000175229
    6          1           0.000031004    0.000000000    0.000037442
    7          1           0.000029371    0.000000000    0.000005058
    8          6          -0.000240552    0.000000000   -0.000235011
    9          7          -0.000023485    0.000000000    0.000422133
 -------------------------------------------------------------------
 Cartesian Forces:  Max     0.000422133 RMS     0.000135968

 GradGradGradGradGradGradGradGradGradGradGradGradGradGradGradGradGradGrad
 Berny optimization.
 Internal  Forces:  Max     0.000266969 RMS     0.000074584
 Search for a local minimum.
 Step number   1 out of a maximum of  48
 All quantities printed in internal units (Hartrees-Bohrs-Radians)
 Second derivative matrix not updated -- analytic derivatives used.
     Eigenvalues ---    0.00890   0.01577   0.02811   0.03481   0.07014
     Eigenvalues ---    0.07312   0.11521   0.12172   0.12813   0.13512
     Eigenvalues ---    0.27338   0.28253   0.38132   0.42589   0.42812
     Eigenvalues ---    0.42904   0.46002   0.48417   0.55566   0.55985
     Eigenvalues ---    0.642891000.000001000.000001000.000001000.00000
     Eigenvalues --- 1000.000001000.000001000.000001000.000001000.00000
     Eigenvalues --- 1000.000001000.000001000.000001000.000001000.00000
     Eigenvalues --- 1000.000001000.000001000.00000
 Angle between quadratic step and forces=  25.05 degrees.
 Linear search not attempted -- first point.
 Iteration  1 RMS(Cart)=  0.00020533 RMS(Int)=  0.00000003
 Iteration  2 RMS(Cart)=  0.00000004 RMS(Int)=  0.00000001
 Variable       Old X    -DE/DX   Delta X   Delta X   Delta X     New X
                                 (Linear)    (Quad)   (Total)
    R1        2.63692   0.00018   0.00000   0.00056   0.00056   2.63748
    R2        2.48898  -0.00005   0.00000   0.00002   0.00002   2.48900
    R3        1.88158   0.00000   0.00000  -0.00001  -0.00001   1.88157
    R4        2.02113   0.00002   0.00000   0.00004   0.00004   2.02117
    R5        2.61217  -0.00006   0.00000  -0.00007  -0.00007   2.61209
    R6        2.63323  -0.00023   0.00000  -0.00050  -0.00050   2.63273
    R7        2.02125   0.00001   0.00000   0.00001   0.00001   2.02126
    R8        2.02391   0.00003   0.00000   0.00007   0.00007   2.02398
    R9        2.60104  -0.00027   0.00000  -0.00068  -0.00068   2.60037
    A1        1.85113  -0.00011   0.00000  -0.00030  -0.00030   1.85084
    A2        2.29954   0.00002   0.00000   0.00000   0.00000   2.29954
    A3        2.14415   0.00001   0.00000   0.00005   0.00005   2.14420
    A4        1.83949  -0.00003   0.00000  -0.00006  -0.00006   1.83944
    A5        1.91735  -0.00003   0.00000  -0.00009  -0.00009   1.91725
    A6        2.12152  -0.00003   0.00000  -0.00043  -0.00043   2.12109
    A7        2.24432   0.00006   0.00000   0.00053   0.00053   2.24484
    A8        2.18850  -0.00003   0.00000  -0.00017  -0.00017   2.18833
    A9        1.94566   0.00003   0.00000   0.00010   0.00010   1.94576
   A10        2.14902  -0.00001   0.00000   0.00007   0.00007   2.14910
   A11        2.20626  -0.00009   0.00000  -0.00032  -0.00032   2.20594
   A12        2.20578  -0.00005   0.00000  -0.00002  -0.00002   2.20576
   A13        1.87114   0.00014   0.00000   0.00035   0.00035   1.87149
    D1        0.00000   0.00000   0.00000   0.00000   0.00000   0.00000
    D2        3.14159   0.00000   0.00000   0.00000   0.00000   3.14159
    D3        3.14159   0.00000   0.00000   0.00000   0.00000   3.14159
    D4        0.00000   0.00000   0.00000   0.00000   0.00000   0.00000
    D5        3.14159   0.00000   0.00000   0.00000   0.00000   3.14159
    D6        0.00000   0.00000   0.00000   0.00000   0.00000   0.00000
    D7        0.00000   0.00000   0.00000   0.00000   0.00000   0.00000
    D8        3.14159   0.00000   0.00000   0.00000   0.00000   3.14159
    D9        0.00000   0.00000   0.00000   0.00000   0.00000   0.00000
   D10        3.14159   0.00000   0.00000   0.00000   0.00000   3.14159
   D11        3.14159   0.00000   0.00000   0.00000   0.00000   3.14159
   D12        0.00000   0.00000   0.00000   0.00000   0.00000   0.00000
   D13        3.14159   0.00000   0.00000   0.00000   0.00000   3.14159
   D14        0.00000   0.00000   0.00000   0.00000   0.00000   0.00000
   D15        0.00000   0.00000   0.00000   0.00000   0.00000   0.00000
   D16        3.14159   0.00000   0.00000   0.00000   0.00000   3.14159
         Item               Value     Threshold  Converged?
 Maximum Force            0.000267     0.000450     YES
 RMS     Force            0.000075     0.000300     YES
 Maximum Displacement     0.000539     0.001800     YES
 RMS     Displacement     0.000205     0.001200     YES
 Predicted change in Energy=-2.859104D-07
 Optimization completed.
    -- Stationary point found.
                         ----------------------------
                         !   Optimized Parameters   !
                         ! (Angstroms and Degrees)  !
 ------------------------                            -------------------------
 ! Name  Definition              Value          Derivative Info.             !
 -----------------------------------------------------------------------------
 ! R1    R(1,5)                  1.3954         -DE/DX =    0.0002           !
 ! R2    R(1,8)                  1.3171         -DE/DX =    0.               !
 ! R3    R(2,9)                  0.9957         -DE/DX =    0.               !
 ! R4    R(3,4)                  1.0695         -DE/DX =    0.               !
 ! R5    R(3,5)                  1.3823         -DE/DX =   -0.0001           !
 ! R6    R(3,9)                  1.3934         -DE/DX =   -0.0002           !
 ! R7    R(5,6)                  1.0696         -DE/DX =    0.               !
 ! R8    R(7,8)                  1.071          -DE/DX =    0.               !
 ! R9    R(8,9)                  1.3764         -DE/DX =   -0.0003           !
 ! A1    A(5,1,8)              106.0622         -DE/DX =   -0.0001           !
 ! A2    A(4,3,5)              131.754          -DE/DX =    0.               !
 ! A3    A(4,3,9)              122.8508         -DE/DX =    0.               !
 ! A4    A(5,3,9)              105.3953         -DE/DX =    0.               !
 ! A5    A(1,5,3)              109.856          -DE/DX =    0.               !
 ! A6    A(1,5,6)              121.5542         -DE/DX =    0.               !
 ! A7    A(3,5,6)              128.5899         -DE/DX =    0.0001           !
 ! A8    A(1,8,7)              125.3919         -DE/DX =    0.               !
 ! A9    A(1,8,9)              111.4781         -DE/DX =    0.               !
 ! A10   A(7,8,9)              123.13           -DE/DX =    0.               !
 ! A11   A(2,9,3)              126.4094         -DE/DX =   -0.0001           !
 ! A12   A(2,9,8)              126.3821         -DE/DX =    0.               !
 ! A13   A(3,9,8)              107.2085         -DE/DX =    0.0001           !
 ! D1    D(8,1,5,3)              0.             -DE/DX =    0.               !
 ! D2    D(8,1,5,6)            180.             -DE/DX =    0.               !
 ! D3    D(5,1,8,7)            180.             -DE/DX =    0.               !
 ! D4    D(5,1,8,9)              0.             -DE/DX =    0.               !
 ! D5    D(4,3,5,1)            180.             -DE/DX =    0.               !
 ! D6    D(4,3,5,6)              0.             -DE/DX =    0.               !
 ! D7    D(9,3,5,1)              0.             -DE/DX =    0.               !
 ! D8    D(9,3,5,6)            180.             -DE/DX =    0.               !
 ! D9    D(4,3,9,2)              0.             -DE/DX =    0.               !
 ! D10   D(4,3,9,8)            180.             -DE/DX =    0.               !
 ! D11   D(5,3,9,2)            180.             -DE/DX =    0.               !
 ! D12   D(5,3,9,8)              0.             -DE/DX =    0.               !
 ! D13   D(1,8,9,2)            180.             -DE/DX =    0.               !
 ! D14   D(1,8,9,3)              0.             -DE/DX =    0.               !
 ! D15   D(7,8,9,2)              0.             -DE/DX =    0.               !
 ! D16   D(7,8,9,3)            180.             -DE/DX =    0.               !
 -----------------------------------------------------------------------------
 GradGradGradGradGradGradGradGradGradGradGradGradGradGradGradGradGradGrad

 1\1\GINC-WOLFRAM\Freq\RHF\CEP-31G\C3H4N2\RDJ3\30-Aug-2000\0\\#N GEOM=A
 LLCHECK GUESS=TCHECK RHF/CEP-31G FREQ\\1H imidazole C3H4N2 casno=28832
 4\\0,1\N,0.5049101681,0.,1.1499157576\H,0.4948106716,0.,-2.0294865477\
 C,-1.0296154081,0.,-0.5274062183\H,-1.910399276,0.,-1.1341410177\C,-0.
 8565436639,0.,0.8440144902\H,-1.6024660055,0.,1.610595267\H,2.20169864
 35,0.,-0.1294314378\C,1.1379316979,0.,-0.0050996226\N,0.2569429244,0.,
 -1.0626299298\\Version=IBM-RS6000-G98RevA.6\State=1-A'\HF=-38.0259777\
 RMSD=1.219e-09\RMSF=1.360e-04\Dipole=-0.1795815,0.,-1.7092286\DipoleDe
 riv=-0.4247037,0.,0.0034518,0.,-0.3853209,0.,0.0957076,0.,-0.5753,0.21
 74238,0.,-0.0121978,0.,0.4347358,0.,0.00281,0.,0.2554682,-0.0015776,0.
 ,-0.3555669,0.,-0.1476942,0.,-0.0841391,0.,0.259677,0.0036943,0.,-0.05
 92471,0.,0.244241,0.,-0.0902508,0.,0.0463531,0.250649,0.,-0.0035285,0.
 ,-0.1717623,0.,-0.1792136,0.,0.1191099,-0.0061126,0.,0.0726413,0.,0.20
 47464,0.,0.1110556,0.,0.0282808,-0.056666,0.,0.03541,0.,0.1899615,0.,0
 .038474,0.,0.0908957,0.2124775,0.,0.0816709,0.,0.064095,0.,-0.0105229,
 0.,0.6470977,-0.1951846,0.,0.2373662,0.,-0.4330022,0.,0.1160793,0.,-0.
 8715825\Polar=44.3328618,0.,20.832401,-0.2935903,0.,45.1915007\PolarDe
 riv=-11.0656305,0.,-1.3647835,-0.2024754,0.,6.6711914,0.,0.0689906,0.,
 0.,2.7477381,0.,7.1937804,0.,1.7758078,2.7355115,0.,7.6416505,0.820852
 1,0.,-0.1990863,-1.8582462,0.,1.1253839,0.,0.1872161,0.,0.,-0.7889112,
 0.,-1.0004859,0.,0.0490364,1.7597645,0.,-8.948555,-0.9405815,0.,0.4859
 944,-2.0483943,0.,-1.7244615,0.,-6.3132711,0.,0.,-6.2911902,0.,-8.1149
 79,0.,-3.7618373,-3.5335706,0.,-4.6737112,-6.4875958,0.,0.7910746,-3.0
 492568,0.,-2.343719,0.,1.0360969,0.,0.,0.6123391,0.,-3.0077483,0.,0.35
 37116,-2.6326566,0.,-3.1870232,7.802251,0.,0.4854166,4.2465904,0.,-2.9
 501271,0.,-1.6745505,0.,0.,6.1632729,0.,7.9395776,0.,3.0414367,2.82759
 26,0.,3.2730354,-4.2248868,0.,0.6287803,3.2946812,0.,-3.0593207,0.,-0.
 0197627,0.,0.,-0.3081449,0.,2.872566,0.,-0.3213503,-2.7370348,0.,5.136
 2355,10.0174499,0.,0.0219861,-0.6430374,0.,1.019908,0.,-0.7525908,0.,0
 .,0.0832271,0.,-0.8798074,0.,0.1679678,1.6323401,0.,-0.30681,7.6120149
 ,0.,0.7912628,-0.5347367,0.,0.5998912,0.,6.8783175,0.,0.,-1.4619824,0.
 ,-7.534174,0.,-1.3878908,-0.8054759,0.,1.6958912,-3.5338735,0.,-1.6406
 449,0.7948751,0.,0.6612538,0.,0.5895541,0.,0.,-0.7563485,0.,2.5312707,
 0.,0.083118,0.7535292,0.,-0.6307131\HyperPolar=46.3320265,0.,7.2252166
 ,0.,-16.1126354,0.,-8.6243042,-26.2985734,0.,-34.1317248\PG=CS [SG(C3H
 4N2)]\NImag=0\\0.55032780,0.,0.12095182,-0.07397903,0.,0.65134136,-0.0
 0363760,0.,-0.00879881,0.09985452,0.,0.00674172,0.,0.,0.01727940,-0.00
 350283,0.,-0.00138639,-0.11122671,0.,0.52743035,-0.03511266,0.,-0.0201
 3072,0.00835567,0.,-0.00677168,0.82563898,0.,0.02098346,0.,0.,-0.00476
 001,0.,0.,0.14749546,-0.09580981,0.,-0.02544226,0.03449665,0.,0.001538
 02,0.20207110,0.,0.87184667,0.00223038,0.,0.00116232,0.00019023,0.,0.0
 0025169,-0.29744680,0.,-0.16004357,0.30981842,0.,0.00799674,0.,0.,-0.0
 0127812,0.,0.,-0.03363217,0.,0.,0.02543579,-0.00386745,0.,-0.00527202,
 -0.00103327,0.,0.00029472,-0.17206667,0.,-0.18952552,0.17185668,0.,0.1
 7853035,-0.27846335,0.,-0.02573137,-0.00998631,0.,-0.00031960,-0.12298
 963,0.,-0.03338569,0.00593197,0.,-0.02506621,0.74767813,0.,-0.08348091
 ,0.,0.,0.00320830,0.,0.,-0.08338604,0.,0.,0.00170130,0.,0.,0.16828581,
 -0.04894219,0.,-0.13005487,0.00266696,0.,0.00185985,-0.04301514,0.,-0.
 46478297,0.00568297,0.,0.00413825,-0.18588575,0.,0.92354869,-0.0152114
 5,0.,0.02423036,0.00077289,0.,0.00003312,0.01007592,0.,-0.00985713,0.0
 0000875,0.,0.00095794,-0.22798026,0.,0.17110821,0.23858359,0.,-0.00427
 765,0.,0.,0.00189262,0.,0.,0.00175355,0.,0.,-0.00297256,0.,0.,-0.04068
 066,0.,0.,0.03001406,-0.01282591,0.,0.01364765,0.00130982,0.,0.0002127
 4,0.02421912,0.,-0.00516117,-0.00083804,0.,-0.00027866,0.17669871,0.,-
 0.25399160,-0.18224474,0.,0.25107939,-0.00510310,0.,-0.00254531,-0.000
 27145,0.,-0.00057282,0.00118030,0.,-0.00432575,-0.00053141,0.,0.000263
 06,0.00191223,0.,0.00339809,-0.00062574,0.,0.00009577,0.42322965,0.,-0
 .00343784,0.,0.,-0.00154379,0.,0.,0.00409950,0.,0.,0.00161874,0.,0.,0.
 00950222,0.,0.,0.00060833,0.,0.,0.02979984,0.03296399,0.,0.00183279,0.
 00051146,0.,0.00037595,-0.00025103,0.,-0.00677555,-0.00120822,0.,0.001
 08939,0.00266527,0.,-0.00459009,0.00168994,0.,0.00060738,-0.04151891,0
 .,0.07118173,-0.21136360,0.,0.13809293,0.01904049,0.,0.01660471,-0.096
 54438,0.,0.00193551,-0.00305675,0.,0.00496787,-0.09163357,0.,0.0232234
 6,-0.00673729,0.,-0.00526532,-0.40989658,0.,0.04094197,1.03273504,0.,-
 0.09264788,0.,0.,-0.00518968,0.,0.,0.01716802,0.,0.,0.00386687,0.,0.,0
 .01103680,0.,0.,0.00651042,0.,0.,-0.04115252,0.,0.,0.18074048,0.167341
 58,0.,-0.38040388,-0.02501213,0.,-0.00919360,-0.04533185,0.,-0.0169552
 0,0.00491649,0.,-0.00608057,0.08372291,0.,0.00495233,-0.00208720,0.,-0
 .00024257,0.03811012,0.,-0.07126658,-0.12397137,0.,0.71923687,-0.00366
 642,0.,-0.03230037,-0.11431844,0.,0.10550412,-0.29315741,0.,0.06491870
 ,-0.01714479,0.,0.02398805,-0.02446922,0.,0.07176338,0.00111359,0.,-0.
 00114940,-0.00989391,0.,-0.03579447,-0.23254337,0.,-0.09768856,0.69407
 996,0.,0.02717054,0.,0.,-0.01635044,0.,0.,-0.06972177,0.,0.,-0.0027366
 0,0.,0.,0.01381317,0.,0.,0.00715188,0.,0.,0.00050551,0.,0.,-0.08033251
 ,0.,0.,0.12050022,0.03862166,0.,-0.12426238,0.10708603,0.,-0.52113165,
 0.06127686,0.,-0.16474201,-0.02178033,0.,0.01710406,0.00730173,0.,-0.0
 8107959,-0.00383051,0.,-0.00587317,0.00709576,0.,0.00754498,-0.0965297
 6,0.,-0.24004680,-0.09924145,0.,1.11248657\\-0.00024780,0.,-0.00007088
 ,0.00001929,0.,0.00000180,-0.00021185,0.,0.00011094,0.00001538,0.,0.00
 001254,0.00022131,0.,0.00017523,-0.00003100,0.,-0.00003744,-0.00002937
 ,0.,-0.00000506,0.00024055,0.,0.00023501,0.00002348,0.,-0.00042213\\\@

 READER, WHETHER YOU BE DILETTANTE OR PROFESSOR ... SHOW YOURSELF TO BE
 MORE HUMAN THAN CRITICAL, AND THEN YOUR PLEASURE WILL INCREASE.
                                           -- DOMENICO SCARLATTI (1738)
 Job cpu time:  0 days  0 hours  0 minutes 39.2 seconds.
 File lengths (MBytes):  RWF=   12 Int=    0 D2E=    0 Chk=    8 Scr=    1
 Normal termination of Gaussian 98.
