 Gaussian 98, Revision A.4,
 Gaussian 98:  IBM-RS6000-G98RevA.4 11-Sep-1998

 ------------------
 #HF/3-21G opt freq
 ------------------

 --------------------------------
 1H imidazole C3H4N2 casno=288324
 --------------------------------
 Symbolic Z-matrix:
 Charge =  0 Multiplicity = 1

 SCF Done:  E(RHF) =  -223.491670812     A.U. after   13 cycles
 SCF Done:  E(RHF) =  -223.542142037     A.U. after   13 cycles
 SCF Done:  E(RHF) =  -223.548212284     A.U. after   13 cycles
 SCF Done:  E(RHF) =  -223.548849518     A.U. after   11 cycles
 SCF Done:  E(RHF) =  -223.549081744     A.U. after   11 cycles
 SCF Done:  E(RHF) =  -223.549107733     A.U. after   10 cycles
 SCF Done:  E(RHF) =  -223.549108936     A.U. after    9 cycles
 Optimization completed.
    -- Stationary point found.
 Normal termination of Gaussian 98.

 --------------------------------------------
 #N Geom=AllCheck Guess=TCheck RHF/3-21G Freq
 --------------------------------------------

 1H imidazole C3H4N2 casno=288324
 --------------------------------
 Redundant internal coordinates taken from checkpointfile:
 /wrk/rdj3/Gau-11564.chk
 Charge =  0 Multiplicity = 1

                         Standard orientation:
 ---------------------------------------------------------------------
 Center     Atomic     Atomic              Coordinates (Angstroms)
 Number     Number      Type              X           Y           Z
 ---------------------------------------------------------------------
    1          7             0       -0.746242   -0.967544    0.000000
    2          1             0       -0.001024    2.097278    0.000000
    3          6             0        1.117815    0.285244    0.000000
    4          1             0        2.108213    0.671072    0.000000
    5          6             0        0.647399   -0.982731    0.000000
    6          1             0        1.193984   -1.893692    0.000000
    7          1             0       -2.092028    0.656612    0.000000
    8          6             0       -1.096122    0.284233    0.000000
    9          7             0        0.000000    1.103009    0.000000
 ---------------------------------------------------------------------

 SCF Done:  E(RHF) =  -223.549108936     A.U. after    1 cycles

  The electronic state is 1-A'.
 Alpha  occ. eigenvalues --  -15.54647 -15.46781 -11.23938 -11.21012 -11.18481
 Alpha  occ. eigenvalues --   -1.35215  -1.16869  -1.01542  -0.82416  -0.79877
 Alpha  occ. eigenvalues --   -0.76603  -0.61050  -0.60462  -0.59936  -0.57350
 Alpha  occ. eigenvalues --   -0.41531  -0.39169  -0.32930
 Alpha virt. eigenvalues --    0.19402   0.25536   0.25964   0.31473   0.32913
 Alpha virt. eigenvalues --    0.35381   0.42468   0.44590   0.57404   0.58285
 Alpha virt. eigenvalues --    0.71909   0.94181   0.96326   0.97870   1.02677

  Exact polarizability:  40.895  -1.501  40.713   0.000   0.000  12.180
 Approx polarizability:  38.083   0.409  42.217   0.000   0.000  11.328

                     1                      2                      3
                    A"                     A"                     A"
 Frequencies --   705.0962               734.5826               744.0204
 Red. masses --     2.3372                 1.2364                 3.1453
 Frc consts  --     0.6846                 0.3931                 1.0258
 IR Inten    --     0.0776               229.1549                20.6005
 Raman Activ --     1.1586                 1.2207                 0.9940

                     4                      5                      6
                    A"                     A'                     A"
 Frequencies --   907.6831              1004.1058              1017.6597
 Red. masses --     1.2596                 6.0291                 1.4457
 Frc consts  --     0.6114                 3.5815                 0.8821
 IR Inten    --    41.1610                13.4531                 7.5959
 Raman Activ --     2.2723                 2.0146                 0.0909

                     7                      8                      9
                    A'                     A"                     A'
 Frequencies --  1045.1760              1077.7856              1122.7388
 Red. masses --     4.3324                 1.4377                 2.0744
 Frc consts  --     2.7884                 0.9840                 1.5406
 IR Inten    --     2.2360                 0.7186                45.5767
 Raman Activ --     0.7458                 1.7323                 5.0915

                    10                     11                     12
                    A'                     A'                     A'
 Frequencies --  1149.8725              1167.9714              1250.8077
 Red. masses --     4.7941                 2.3297                 1.3822
 Frc consts  --     3.7347                 1.8725                 1.2741
 IR Inten    --    28.3334                 2.2285                 1.2812
 Raman Activ --     9.6213                 5.2415                16.4024

                    13                     14                     15
                    A'                     A'                     A'
 Frequencies --  1395.8323              1446.8887              1531.7225
 Red. masses --     1.4391                 2.5812                 1.9669
 Frc consts  --     1.6520                 3.1837                 2.7189
 IR Inten    --     1.5872                12.7296                20.0181
 Raman Activ --    10.9245                18.3495                 8.2683

                    16                     17                     18
                    A'                     A'                     A'
 Frequencies --  1609.8850              1688.6063              3467.0358
 Red. masses --     2.7634                 2.7114                 1.0958
 Frc consts  --     4.2197                 4.5551                 7.7607
 IR Inten    --    13.5411                28.6090                 4.3545
 Raman Activ --    18.3095                 2.1574                55.6673

                    19                     20                     21
                    A'                     A'                     A'
 Frequencies --  3468.1020              3495.0649              3857.4574
 Red. masses --     1.0948                 1.1099                 1.0823
 Frc consts  --     7.7583                 7.9879                 9.4888
 IR Inten    --     0.0967                 1.9280               103.9868
 Raman Activ --    51.5448               105.6110                78.6808

 - Thermochemistry -
 -------------------
 Temperature   298.150 Kelvin.  Pressure   1.00000 Atm.
 Atom  1 has atomic number  7 and mass  14.00307

 Molecular mass:    68.03745 amu.
 Principal axes and moments of inertia in atomic units:
                           1         2         3
     EIGENVALUES --   186.64459 188.77100 375.41559
           X            0.68487   0.72866   0.00000
           Y            0.72866  -0.68487   0.00000
           Z            0.00000   0.00000   1.00000
 THIS MOLECULE IS AN ASYMMETRIC TOP.
 ROTATIONAL SYMMETRY NUMBER  1.
 ROTATIONAL TEMPERATURES (KELVIN)      0.46406     0.45883     0.23071
 ROTATIONAL CONSTANTS (GHZ)            9.66940     9.56048     4.80732
 Zero-point vibrational energy     202695.8 (Joules/Mol)
                                   48.44547 (Kcal/Mol)
 VIBRATIONAL TEMPERATURES:   1014.47  1056.89  1070.47  1305.95  1444.68
          (KELVIN)           1464.18  1503.77  1550.68  1615.36  1654.40
                             1680.44  1799.62  2008.28  2081.74  2203.79
                             2316.25  2429.51  4988.26  4989.80  5028.59
                             5549.99

 Zero-point correction=                           0.077203 (Hartree/Particle)
 Thermal correction to Energy=                    0.080622
 Thermal correction to Enthalpy=                  0.081566
 Thermal correction to Gibbs Free Energy=         0.051064
 Sum of electronic and zero-point Energies=           -223.471906
 Sum of electronic and thermal Energies=              -223.468487
 Sum of electronic and thermal Enthalpies=            -223.467543
 Sum of electronic and thermal Free Energies=         -223.498045

                     E (Thermal)             CV                S
                      KCAL/MOL        CAL/MOL-KELVIN    CAL/MOL-KELVIN
 TOTAL                   50.591             11.399             64.197
 ELECTRONIC               0.000              0.000              0.000
 TRANSLATIONAL            0.889              2.981             38.570
 ROTATIONAL               0.889              2.981             24.096
 VIBRATIONAL             48.814              5.437              1.531
                       Q            LOG10(Q)             LN(Q)
 TOTAL BOT       0.325242D-23        -23.487793        -54.082642
 TOTAL V=0       0.105384D+13         12.022775         27.683463
 VIB (BOT)       0.358132D-35        -35.445956        -81.617331
 VIB (V=0)       0.116041D+01          0.064612          0.148775
 ELECTRONIC      0.100000D+01          0.000000          0.000000
 TRANSLATIONAL   0.220588D+08          7.343582         16.909224
 ROTATIONAL      0.411700D+05          4.614581         10.625465
 ***** Axes restored to original set *****
 -------------------------------------------------------------------
 Center     Atomic                   Forces (Hartrees/Bohr)
 Number     Number              X              Y              Z
 -------------------------------------------------------------------
    1          7          -0.000012331    0.000000000    0.000112758
    2          1           0.000048639    0.000000000   -0.000083967
    3          6           0.000460594    0.000000000   -0.000097348
    4          1          -0.000048659    0.000000000   -0.000014653
    5          6          -0.000412528    0.000000000    0.000255167
    6          1          -0.000049517    0.000000000    0.000073380
    7          1           0.000072642    0.000000000   -0.000018459
    8          6           0.000023819    0.000000000   -0.000395077
    9          7          -0.000082658    0.000000000    0.000168198
 -------------------------------------------------------------------
 Cartesian Forces:  Max     0.000460594 RMS     0.000159514

 GradGradGradGradGradGradGradGradGradGradGradGradGradGradGradGradGradGrad
 Berny optimization.
 Internal  Forces:  Max     0.000312977 RMS     0.000103074
 Search for a local minimum.
 Step number   1 out of a maximum of  48
 All quantities printed in internal units (Hartrees-Bohrs-Radians)
 Second derivative matrix not updated -- analytic derivatives used.
     Eigenvalues ---    0.00975   0.01781   0.02912   0.03568   0.07609
     Eigenvalues ---    0.07716   0.11616   0.12309   0.12922   0.13565
     Eigenvalues ---    0.25263   0.26517   0.35218   0.41952   0.42368
     Eigenvalues ---    0.42465   0.45194   0.48340   0.53007   0.55732
     Eigenvalues ---    0.652361000.000001000.000001000.000001000.00000
     Eigenvalues --- 1000.000001000.000001000.000001000.000001000.00000
     Eigenvalues --- 1000.000001000.000001000.000001000.000001000.00000
     Eigenvalues --- 1000.000001000.000001000.00000
 Angle between quadratic step and forces=  22.53 degrees.
 Linear search not attempted -- first point.
 Iteration  1 RMS(Cart)=  0.00027093 RMS(Int)=  0.00000006
 Iteration  2 RMS(Cart)=  0.00000006 RMS(Int)=  0.00000003
 Variable       Old X    -DE/DX   Delta X   Delta X   Delta X     New X
                                 (Linear)    (Quad)   (Total)
    R1        2.63376   0.00015   0.00000   0.00052   0.00052   2.63427
    R2        2.45618   0.00031   0.00000   0.00046   0.00046   2.45664
    R3        1.87890   0.00009   0.00000   0.00018   0.00018   1.87907
    R4        2.00859   0.00005   0.00000   0.00015   0.00015   2.00874
    R5        2.55571   0.00016   0.00000   0.00030   0.00030   2.55601
    R6        2.61729  -0.00009   0.00000  -0.00056  -0.00056   2.61672
    R7        2.00757   0.00009   0.00000   0.00016   0.00016   2.00772
    R8        2.00925   0.00007   0.00000   0.00017   0.00017   2.00941
    R9        2.58546  -0.00019   0.00000  -0.00038  -0.00038   2.58508
    A1        1.85424   0.00007   0.00000   0.00015   0.00015   1.85440
    A2        2.29753  -0.00013   0.00000  -0.00050  -0.00050   2.29703
    A3        2.13851  -0.00009   0.00000  -0.00009  -0.00009   2.13841
    A4        1.84714   0.00022   0.00000   0.00059   0.00059   1.84774
    A5        1.91516  -0.00027   0.00000  -0.00074  -0.00074   1.91442
    A6        2.12212   0.00012   0.00000   0.00018   0.00018   2.12230
    A7        2.24591   0.00015   0.00000   0.00055   0.00055   2.24646
    A8        2.20116   0.00002   0.00000  -0.00005  -0.00005   2.20111
    A9        1.93981  -0.00003   0.00000  -0.00006  -0.00006   1.93974
   A10        2.14222   0.00000   0.00000   0.00011   0.00011   2.14233
   A11        2.20343   0.00002   0.00000   0.00011   0.00011   2.20354
   A12        2.21133  -0.00003   0.00000  -0.00016  -0.00016   2.21117
   A13        1.86843   0.00001   0.00000   0.00006   0.00006   1.86848
    D1        0.00000   0.00000   0.00000   0.00000   0.00000   0.00000
    D2        3.14159   0.00000   0.00000   0.00000   0.00000   3.14159
    D3        3.14159   0.00000   0.00000   0.00000   0.00000   3.14159
    D4        0.00000   0.00000   0.00000   0.00000   0.00000   0.00000
    D5        3.14159   0.00000   0.00000   0.00000   0.00000   3.14159
    D6        0.00000   0.00000   0.00000   0.00000   0.00000   0.00000
    D7        0.00000   0.00000   0.00000   0.00000   0.00000   0.00000
    D8        3.14159   0.00000   0.00000   0.00000   0.00000   3.14159
    D9        0.00000   0.00000   0.00000   0.00000   0.00000   0.00000
   D10        3.14159   0.00000   0.00000   0.00000   0.00000   3.14159
   D11        3.14159   0.00000   0.00000   0.00000   0.00000   3.14159
   D12        0.00000   0.00000   0.00000   0.00000   0.00000   0.00000
   D13        3.14159   0.00000   0.00000   0.00000   0.00000   3.14159
   D14        0.00000   0.00000   0.00000   0.00000   0.00000   0.00000
   D15        0.00000   0.00000   0.00000   0.00000   0.00000   0.00000
   D16        3.14159   0.00000   0.00000   0.00000   0.00000   3.14159
         Item               Value     Threshold  Converged?
 Maximum Force            0.000313     0.000450     YES
 RMS     Force            0.000103     0.000300     YES
 Maximum Displacement     0.000735     0.001800     YES
 RMS     Displacement     0.000271     0.001200     YES
 Predicted change in Energy=-4.829205D-07
 Optimization completed.
    -- Stationary point found.
                         ----------------------------
                         !   Optimized Parameters   !
                         ! (Angstroms and Degrees)  !
 ------------------------                            -------------------------
 ! Name  Definition              Value          Derivative Info.             !
 -----------------------------------------------------------------------------
 ! R1    R(1,5)                  1.3937         -DE/DX =    0.0001           !
 ! R2    R(1,8)                  1.2998         -DE/DX =    0.0003           !
 ! R3    R(2,9)                  0.9943         -DE/DX =    0.0001           !
 ! R4    R(3,4)                  1.0629         -DE/DX =    0.               !
 ! R5    R(3,5)                  1.3524         -DE/DX =    0.0002           !
 ! R6    R(3,9)                  1.385          -DE/DX =   -0.0001           !
 ! R7    R(5,6)                  1.0624         -DE/DX =    0.0001           !
 ! R8    R(7,8)                  1.0632         -DE/DX =    0.0001           !
 ! R9    R(8,9)                  1.3682         -DE/DX =   -0.0002           !
 ! A1    A(5,1,8)              106.2404         -DE/DX =    0.0001           !
 ! A2    A(4,3,5)              131.639          -DE/DX =   -0.0001           !
 ! A3    A(4,3,9)              122.5274         -DE/DX =   -0.0001           !
 ! A4    A(5,3,9)              105.8335         -DE/DX =    0.0002           !
 ! A5    A(1,5,3)              109.7304         -DE/DX =   -0.0003           !
 ! A6    A(1,5,6)              121.5885         -DE/DX =    0.0001           !
 ! A7    A(3,5,6)              128.6811         -DE/DX =    0.0002           !
 ! A8    A(1,8,7)              126.1173         -DE/DX =    0.               !
 ! A9    A(1,8,9)              111.1428         -DE/DX =    0.               !
 ! A10   A(7,8,9)              122.7399         -DE/DX =    0.               !
 ! A11   A(2,9,3)              126.2472         -DE/DX =    0.               !
 ! A12   A(2,9,8)              126.6998         -DE/DX =    0.               !
 ! A13   A(3,9,8)              107.0529         -DE/DX =    0.               !
 ! D1    D(8,1,5,3)              0.             -DE/DX =    0.               !
 ! D2    D(8,1,5,6)            180.             -DE/DX =    0.               !
 ! D3    D(5,1,8,7)            180.             -DE/DX =    0.               !
 ! D4    D(5,1,8,9)              0.             -DE/DX =    0.               !
 ! D5    D(4,3,5,1)            180.             -DE/DX =    0.               !
 ! D6    D(4,3,5,6)              0.             -DE/DX =    0.               !
 ! D7    D(9,3,5,1)              0.             -DE/DX =    0.               !
 ! D8    D(9,3,5,6)            180.             -DE/DX =    0.               !
 ! D9    D(4,3,9,2)              0.             -DE/DX =    0.               !
 ! D10   D(4,3,9,8)            180.             -DE/DX =    0.               !
 ! D11   D(5,3,9,2)            180.             -DE/DX =    0.               !
 ! D12   D(5,3,9,8)              0.             -DE/DX =    0.               !
 ! D13   D(1,8,9,2)            180.             -DE/DX =    0.               !
 ! D14   D(1,8,9,3)              0.             -DE/DX =    0.               !
 ! D15   D(7,8,9,2)              0.             -DE/DX =    0.               !
 ! D16   D(7,8,9,3)            180.             -DE/DX =    0.               !
 -----------------------------------------------------------------------------
 GradGradGradGradGradGradGradGradGradGradGradGradGradGradGradGradGradGrad

 1\1\GINC-FERRUM\Freq\RHF\3-21G\C3H4N2\RDJ3\06-Oct-1999\0\\#N GEOM=ALLC
 HECK GUESS=TCHECK RHF/3-21G FREQ\\1H imidazole C3H4N2 casno=288324\\0,
 1\N,0.5024195055,0.,1.1138193342\H,0.4857176508,0.,-2.040258218\C,-1.0
 216247286,0.,-0.5358702626\H,-1.8960359056,0.,-1.1401518236\C,-0.85699
 94766,0.,0.8064978411\H,-1.5993266888,0.,1.5664682279\H,2.1871427727,0
 .,-0.1553261235\C,1.1321370408,0.,-0.0232020997\N,0.2549269456,0.,-1.0
 731457536\\Version=IBM-RS6000-G98RevA.4\State=1-A'\HF=-223.5491089\RMS
 D=8.096e-10\RMSF=1.595e-04\Dipole=-0.1519565,0.,-1.5577377\DipoleDeriv
 =-0.4613317,0.,0.0263832,0.,-0.3772775,0.,0.1047643,0.,-0.545728,0.222
 4068,0.,-0.0052981,0.,0.4302879,0.,-0.0098144,0.,0.2762441,-0.0267397,
 0.,-0.2988958,0.,-0.0820019,0.,-0.0288741,0.,0.2732539,0.0264411,0.,-0
 .0398432,0.,0.2094851,0.,-0.0555327,0.,0.0592257,0.1993648,0.,-0.12017
 42,0.,-0.1460651,0.,-0.1447201,0.,0.0675518,0.0105536,0.,0.0725857,0.,
 0.1797933,0.,0.0649547,0.,0.0393285,-0.0187126,0.,0.0148406,0.,0.17230
 74,0.,0.0338518,0.,0.0822905,0.2264343,0.,0.1286593,0.,0.111266,0.,-0.
 0895147,0.,0.5420248,-0.1784165,0.,0.2217425,0.,-0.4977952,0.,0.124885
 2,0.,-0.7941912\Polar=41.5605648,0.,12.180142,-1.2992835,0.,40.0474281
 \PolarDeriv=-8.1248025,0.,-0.2638885,-0.7326767,0.,6.1889504,0.,0.0928
 503,0.,0.,3.0187624,0.,6.0995152,0.,-0.1087512,2.3863077,0.,6.4447199,
 0.7450229,0.,-0.0895201,-1.7166455,0.,1.3543945,0.,0.2727473,0.,0.,-1.
 1118055,0.,-0.7170201,0.,0.1085171,1.7945577,0.,-8.774412,-0.8127853,0
 .,0.9939103,-1.0893425,0.,-2.244688,0.,-3.4666558,0.,0.,-4.5642493,0.,
 -4.8019213,0.,-0.3412888,-1.7183308,0.,-2.7418938,-6.3085099,0.,-0.422
 2527,-2.9816182,0.,-1.6429511,0.,-0.9553221,0.,0.,-0.274216,0.,-2.5730
 619,0.,-0.1608874,-2.7263244,0.,-3.0327603,5.7353734,0.,0.5232188,3.07
 83497,0.,-2.2265958,0.,-0.2879084,0.,0.,4.6755316,0.,5.3619194,0.,-0.2
 697408,2.508394,0.,1.6885448,-4.2154066,0.,-0.3548618,3.4605649,0.,-2.
 6056827,0.,-1.3994008,0.,0.,0.7311541,0.,2.292094,0.,0.2534632,-2.8904
 564,0.,5.0183119,9.6421345,0.,0.4526715,-0.4788082,0.,0.5740312,0.,1.3
 2923,0.,0.,-0.0213056,0.,-0.8729437,0.,-0.055025,1.7830825,0.,-0.34716
 44,4.9673277,0.,-0.1889996,-0.5595264,0.,0.2095092,0.,3.9875968,0.,0.,
 -1.1384337,0.,-5.1517406,0.,-0.1914423,-0.810991,0.,1.9354858,-1.62835
 42,0.,-0.6502778,1.019703,0.,0.3930323,0.,0.4268628,0.,0.,-1.315438,0.
 ,0.363159,0.,0.7651552,-0.3262393,0.,-0.1908319\HyperPolar=20.1307337,
 0.,1.3421725,0.,-12.5409257,0.,-7.0107724,-25.0823777,0.,-32.3791242\P
 G=CS [SG(C3H4N2)]\NImag=0\\0.49188718,0.,0.12872874,-0.07901019,0.,0.6
 4505747,-0.00322921,0.,-0.00910677,0.09763069,0.,0.00651674,0.,0.,0.01
 845417,-0.00408110,0.,-0.00133661,-0.10258530,0.,0.50404430,-0.0403906
 8,0.,-0.02082601,0.00792043,0.,-0.00397771,0.80831922,0.,0.02288834,0.
 ,0.,-0.00368532,0.,0.,0.17163881,-0.10050108,0.,-0.02969096,0.03430452
 ,0.,-0.00152893,0.21459977,0.,0.85332101,0.00244381,0.,0.00130836,-0.0
 0000596,0.,0.00045823,-0.29209774,0.,-0.15627143,0.30709968,0.,0.00837
 823,0.,0.,-0.00151636,0.,0.,-0.03983803,0.,0.,0.02857528,-0.00361797,0
 .,-0.00499186,-0.00108862,0.,0.00018598,-0.16697622,0.,-0.18805362,0.1
 6972080,0.,0.17917046,-0.21192061,0.,-0.01515626,-0.00929465,0.,-0.000
 49932,-0.12644263,0.,-0.02848345,0.00609173,0.,-0.02772553,0.70620182,
 0.,-0.09005577,0.,0.,0.00334523,0.,0.,-0.09848434,0.,0.,0.00452279,0.,
 0.,0.18574897,-0.03673810,0.,-0.12248273,0.00312346,0.,0.00248984,-0.0
 4117599,0.,-0.44645897,0.00317887,0.,0.00185881,-0.20599956,0.,0.91036
 733,-0.01892878,0.,0.02431433,0.00078295,0.,0.00002670,0.01090135,0.,-
 0.00809665,-0.00018953,0.,0.00117232,-0.22508326,0.,0.16752816,0.23752
 507,0.,-0.00373517,0.,0.,0.00182835,0.,0.,0.00399291,0.,0.,-0.00402177
 ,0.,0.,-0.04456925,0.,0.,0.03191766,-0.01126011,0.,0.01340108,0.001224
 78,0.,0.00018660,0.02610181,0.,-0.00841540,-0.00081924,0.,-0.00029098,
 0.17048087,0.,-0.25161856,-0.17988222,0.,0.25199093,-0.00754272,0.,0.0
 0015119,-0.00063023,0.,-0.00086280,0.00175059,0.,-0.00324804,-0.000374
 20,0.,0.00032253,0.00197321,0.,0.00208396,-0.00035085,0.,-0.00008422,0
 .41670847,0.,-0.00260996,0.,0.,-0.00178374,0.,0.,0.00380230,0.,0.,0.00
 151097,0.,0.,0.00982606,0.,0.,0.00064045,0.,0.,0.03120517,0.03493178,0
 .,-0.00018513,0.00065466,0.,0.00027245,-0.00023779,0.,-0.00722183,-0.0
 0109790,0.,0.00128024,0.00210493,0.,-0.00417981,0.00149270,0.,0.000805
 59,-0.04213468,0.,0.07286627,-0.20645002,0.,0.13117392,0.02121398,0.,0
 .01642675,-0.11563570,0.,-0.00365040,-0.00268120,0.,0.00533813,-0.1112
 7452,0.,0.02911932,-0.00576130,0.,-0.00494872,-0.39771073,0.,0.0412092
 6,1.03441219,0.,-0.10047285,0.,0.,-0.00377028,0.,0.,0.02155409,0.,0.,0
 .00406211,0.,0.,0.01214397,0.,0.,0.00611411,0.,0.,-0.04452600,0.,0.,0.
 19704554,0.15990346,0.,-0.36554815,-0.02179733,0.,-0.01286081,-0.05351
 454,0.,-0.01679552,0.00558753,0.,-0.00622688,0.09853119,0.,-0.00046807
 ,-0.00308769,0.,-0.00018880,0.03764818,0.,-0.07098496,-0.14061115,0.,0
 .68456871,-0.00586897,0.,-0.03284857,-0.11438801,0.,0.09509455,-0.2543
 2484,0.,0.05134677,-0.02028659,0.,0.02285455,-0.03025109,0.,0.07887988
 ,0.00110436,0.,-0.00081295,-0.01382355,0.,-0.03692298,-0.21611271,0.,-
 0.08265965,0.65395138,0.,0.03036171,0.,0.,-0.01938879,0.,0.,-0.0818687
 5,0.,0.,-0.00167322,0.,0.,0.01752234,0.,0.,0.00783271,0.,0.,0.00193476
 ,0.,0.,-0.09215069,0.,0.,0.13742993,0.04037330,0.,-0.13422311,0.095270
 60,0.,-0.49145281,0.04600667,0.,-0.15515579,-0.02206521,0.,0.01706785,
 0.00674713,0.,-0.08950785,-0.00346766,0.,-0.00587045,0.00612388,0.,0.0
 0734717,-0.07405711,0.,-0.21149553,-0.09493160,0.,1.06329051\\0.000012
 33,0.,-0.00011276,-0.00004864,0.,0.00008397,-0.00046059,0.,0.00009735,
 0.00004866,0.,0.00001465,0.00041253,0.,-0.00025517,0.00004952,0.,-0.00
 007338,-0.00007264,0.,0.00001846,-0.00002382,0.,0.00039508,0.00008266,
 0.,-0.00016820\\\@

 A SCIENTIST IS SOMEONE WHOSE CURIOSITY SURVIVES
 EDUCATION'S ASSAULTS ON IT.
                          - SIR HERMANN BONDI
 Job cpu time:  0 days  0 hours  0 minutes 54.7 seconds.
 File lengths (MBytes):  RWF=   10 Int=    0 D2E=    0 Chk=    3 Scr=    1
 Normal termination of Gaussian 98.
