 Gaussian 09, Revision A.02,
 Gaussian 09:  AM64L-G09RevA.02 11-Jun-2009

 -----------------
 #HF/TZVP opt freq
 -----------------

 --------------------------------------------------
 1H imidazole C3H4N2 casno=288324 method=1 basis=32
 --------------------------------------------------
 Symbolic Z-matrix:
 Charge =  0 Multiplicity = 1

 SCF Done:  E(RHF) =  -224.839222556     A.U. after   14 cycles
 SCF Done:  E(RHF) =  -224.882496687     A.U. after   14 cycles
 SCF Done:  E(RHF) =  -224.886651776     A.U. after   13 cycles
 SCF Done:  E(RHF) =  -224.886973387     A.U. after   10 cycles
 SCF Done:  E(RHF) =  -224.887059650     A.U. after   10 cycles
 SCF Done:  E(RHF) =  -224.887065409     A.U. after    8 cycles
 Optimization completed.
    -- Stationary point found.
 Normal termination of Gaussian 09 at Wed Jan 19 11:04:26 2011.

 -------------------------------------------------------------
 #N Geom=AllCheck Guess=TCheck SCRF=Check GenChk RHF/TZVP Freq
 -------------------------------------------------------------

 1H imidazole C3H4N2 casno=288324 method=1 basis=32
 --------------------------------------------------
 Redundant internal coordinates taken from checkpoint file:
 /gaussian/Gau-16677.chk
 Charge =  0 Multiplicity = 1

                         Standard orientation:
 ---------------------------------------------------------------------
 Center     Atomic      Atomic             Coordinates (Angstroms)
 Number     Number       Type             X           Y           Z
 ---------------------------------------------------------------------
      1          7           0       -0.740094   -0.962376    0.000000
      2          1           0       -0.012502    2.084826    0.000000
      3          6           0        1.108362    0.286603    0.000000
      4          1           0        2.102271    0.676067    0.000000
      5          6           0        0.630568   -0.973391    0.000000
      6          1           0        1.181595   -1.889003    0.000000
      7          1           0       -2.077071    0.653939    0.000000
      8          6           0       -1.074536    0.279062    0.000000
      9          7           0        0.000000    1.093880    0.000000
 ---------------------------------------------------------------------

 SCF Done:  E(RHF) =  -224.887065409     A.U. after    1 cycles

 The electronic state is 1-A'.
 Alpha  occ. eigenvalues --  -15.61811 -15.53751 -11.28917 -11.25679 -11.23642
 Alpha  occ. eigenvalues --   -1.35585  -1.17492  -1.01732  -0.83390  -0.80557
 Alpha  occ. eigenvalues --   -0.76698  -0.61664  -0.60608  -0.60525  -0.57506
 Alpha  occ. eigenvalues --   -0.43514  -0.40153  -0.32725
 Alpha virt. eigenvalues --    0.12777   0.16648   0.18837   0.19152   0.20757
 Alpha virt. eigenvalues --    0.21163   0.23203   0.27133   0.30329   0.32016
 Alpha virt. eigenvalues --    0.34117   0.36042   0.38214   0.40515   0.43182

 Mulliken atomic charges:
              1
     1  N   -0.167593
     2  H    0.244007
     3  C   -0.146273
     4  H    0.122498
     5  C   -0.087178
     6  H    0.110768
     7  H    0.112456
     8  C   -0.032053
     9  N   -0.156633
 Sum of Mulliken atomic charges =   0.00000

 Dipole moment (field-independent basis, Debye):
    X=              1.1242    Y=              3.7533    Z=              0.0000  Tot=              3.9180
 Quadrupole moment (field-independent basis, Debye-Ang):
   XX=            -26.5963   YY=            -25.8925   ZZ=            -32.3100
   XY=             -3.6313   XZ=              0.0000   YZ=              0.0000

  Exact polarizability:  47.577  -0.216  47.413   0.000   0.000  27.543
 Approx polarizability:  43.547   0.716  46.394   0.000   0.000  28.327

                     1                      2                      3
                    A"                     A"                     A"
 Frequencies --   537.6074               686.5080               728.3474
 Red. masses --     1.4882                 2.1723                 2.9267
 Frc consts  --     0.2534                 0.6032                 0.9148
 IR Inten    --   119.3669                 6.8692                11.0801
 Raman Activ --     0.8884                 0.2758                 0.1661

                     4                      5                      6
                    A"                     A"                     A'
 Frequencies --   833.7558               960.5967               986.6775
 Red. masses --     1.2406                 1.3987                 5.6215
 Frc consts  --     0.5081                 0.7604                 3.2244
 IR Inten    --    60.0238                23.4348                 6.8523
 Raman Activ --     0.2745                 0.3821                 2.4688

                     7                      8                      9
                    A"                     A'                     A'
 Frequencies --   993.3708              1022.8728              1144.7926
 Red. masses --     1.3572                 4.5561                 1.7582
 Frc consts  --     0.7891                 2.8086                 1.3576
 IR Inten    --     0.4713                 2.1758                61.3867
 Raman Activ --     0.7650                 2.0540                 1.8442

                    10                     11                     12
                    A'                     A'                     A'
 Frequencies --  1175.1131              1216.9820              1245.7415
 Red. masses --     1.6994                 3.4968                 1.5495
 Frc consts  --     1.3826                 3.0514                 1.4168
 IR Inten    --    16.6157                 4.7388                 5.5045
 Raman Activ --     1.0819                11.9169                21.6929

                    13                     14                     15
                    A'                     A'                     A'
 Frequencies --  1404.1849              1483.4608              1564.6568
 Red. masses --     1.3752                 3.1490                 2.4617
 Frc consts  --     1.5976                 4.0829                 3.5508
 IR Inten    --     0.8736                 9.6553                24.6334
 Raman Activ --    10.0074                31.7256                19.0875

                    16                     17                     18
                    A'                     A'                     A'
 Frequencies --  1643.4409              1722.6079              3400.7276
 Red. masses --     3.0058                 3.4471                 1.0990
 Frc consts  --     4.7832                 6.0266                 7.4887
 IR Inten    --    26.6275                23.8915                 4.6500
 Raman Activ --    27.7074                 2.3233                59.2988

                    19                     20                     21
                    A'                     A'                     A'
 Frequencies --  3407.4791              3435.8655              3907.9009
 Red. masses --     1.0931                 1.1079                 1.0826
 Frc consts  --     7.4777                 7.7057                 9.7411
 IR Inten    --     3.6498                 2.0720                99.8776
 Raman Activ --    67.2272               101.3622                79.2855

 - Thermochemistry -
 -------------------
 Temperature   298.150 Kelvin.  Pressure   1.00000 Atm.
 Atom     1 has atomic number  7 and mass  14.00307

 Molecular mass:    68.03745 amu.
 Principal axes and moments of inertia in atomic units:
                           1         2         3
     Eigenvalues --   181.68687 186.40738 368.09426
           X            0.51433   0.85759   0.00000
           Y            0.85759  -0.51433   0.00000
           Z            0.00000   0.00000   1.00000
 This molecule is an asymmetric top.
 Rotational symmetry number  1.
 Rotational temperatures (Kelvin)      0.47672     0.46465     0.23530
 Rotational constants (GHZ):           9.93325     9.68170     4.90293
 Zero-point vibrational energy     200390.6 (Joules/Mol)
                                   47.89450 (Kcal/Mol)
 Warning -- explicit consideration of   1 degrees of freedom as
           vibrations may cause significant error
 Vibrational temperatures:    773.50   987.73  1047.93  1199.59  1382.08
          (Kelvin)           1419.61  1429.24  1471.68  1647.10  1690.72
                             1750.96  1792.34  2020.31  2134.37  2251.19
                             2364.54  2478.45  4892.88  4902.60  4943.44
                             5622.59

 Zero-point correction=                           0.076325 (Hartree/Particle)
 Thermal correction to Energy=                    0.079887
 Thermal correction to Enthalpy=                  0.080832
 Thermal correction to Gibbs Free Energy=         0.050154
 Sum of electronic and zero-point Energies=           -224.810741
 Sum of electronic and thermal Energies=              -224.807178
 Sum of electronic and thermal Enthalpies=            -224.806234
 Sum of electronic and thermal Free Energies=         -224.836911

                     E (Thermal)             CV                S
                      KCal/Mol        Cal/Mol-Kelvin    Cal/Mol-Kelvin
 Total                   50.130             12.067             64.566
 Electronic               0.000              0.000              0.000
 Translational            0.889              2.981             38.570
 Rotational               0.889              2.981             24.037
 Vibrational             48.353              6.105              1.959
 Vibration     1          0.893              1.167              0.570

 Optimization completed.
    -- Stationary point found.
 Normal termination of Gaussian 09 at Wed Jan 19 11:08:30 2011.
