 Gaussian 98, Revision A.4,
 Gaussian 98:  x86-Linux-G98RevA.4 11-Sep-1998

 --------------------
 #HF/6-31G** opt freq
 --------------------

 --------------------------------
 1H imidazole C3H4N2 casno=288324
 --------------------------------
 Symbolic Z-matrix:
 Charge =  0 Multiplicity = 1

 SCF Done:  E(RHF) =  -224.773688403     A.U. after   13 cycles
 SCF Done:  E(RHF) =  -224.819313518     A.U. after   13 cycles
 SCF Done:  E(RHF) =  -224.823924783     A.U. after   13 cycles
 SCF Done:  E(RHF) =  -224.824218290     A.U. after   10 cycles
 SCF Done:  E(RHF) =  -224.824295998     A.U. after   11 cycles
 SCF Done:  E(RHF) =  -224.824300241     A.U. after    9 cycles
 Optimization completed.
    -- Stationary point found.
 Normal termination of Gaussian 98.

 -------------------------------------------------
 #N Geom=AllCheck Guess=TCheck RHF/6-31G(d,p) Freq
 -------------------------------------------------

 1H imidazole C3H4N2 casno=288324
 --------------------------------
 Redundant internal coordinates taken from checkpointfile:
 /wrk/rdj3/Gau-28037.chk
 Charge =  0 Multiplicity = 1

                         Standard orientation:
 ---------------------------------------------------------------------
 Center     Atomic     Atomic              Coordinates (Angstroms)
 Number     Number      Type              X           Y           Z
 ---------------------------------------------------------------------
    1          7             0       -0.740972   -0.965942    0.000000
    2          1             0       -0.013379    2.087104    0.000000
    3          6             0        1.109427    0.288350    0.000000
    4          1             0        2.103846    0.679525    0.000000
    5          6             0        0.630183   -0.973933    0.000000
    6          1             0        1.184251   -1.889439    0.000000
    7          1             0       -2.077560    0.655918    0.000000
    8          6             0       -1.074669    0.279113    0.000000
    9          7             0        0.000000    1.095329    0.000000
 ---------------------------------------------------------------------

 SCF Done:  E(RHF) =  -224.824300241     A.U. after    1 cycles

  The electronic state is 1-A'.
 Alpha  occ. eigenvalues --  -15.61933 -15.53676 -11.28729 -11.25437 -11.23354
 Alpha  occ. eigenvalues --   -1.34610  -1.16664  -1.00885  -0.82648  -0.79751
 Alpha  occ. eigenvalues --   -0.75905  -0.60735  -0.59829  -0.59739  -0.56604
 Alpha  occ. eigenvalues --   -0.42757  -0.39322  -0.31930
 Alpha virt. eigenvalues --    0.19519   0.22160   0.24981   0.28546   0.29996
 Alpha virt. eigenvalues --    0.32005   0.39839   0.41960   0.48840   0.51755
 Alpha virt. eigenvalues --    0.68503   0.71108   0.76531   0.79972   0.80689

  Exact polarizability:  44.093  -0.833  44.016   0.000   0.000  17.475
 Approx polarizability:  41.162   0.562  44.265   0.000   0.000  19.477

                     1                      2                      3
                    A"                     A"                     A"
 Frequencies --   544.9079               692.2043               732.5662
 Red. masses --     1.4349                 2.2757                 2.9323
 Frc consts  --     0.2510                 0.6424                 0.9272
 IR Inten    --   140.5884                 6.6954                11.6582
 Raman Activ --     1.3783                 0.8521                 0.4182

                     4                      5                      6
                    A"                     A"                     A'
 Frequencies --   841.9358               968.6963               984.0107
 Red. masses --     1.2406                 1.3962                 5.5278
 Frc consts  --     0.5181                 0.7719                 3.1536
 IR Inten    --    44.9425                15.4415                 7.5231
 Raman Activ --     1.3161                 0.0337                 2.1056

                     7                      8                      9
                    A"                     A'                     A'
 Frequencies --  1003.1670              1020.4663              1155.3876
 Red. masses --     1.3658                 4.6806                 1.6949
 Frc consts  --     0.8098                 2.8718                 1.3331
 IR Inten    --     0.1737                 1.8515                57.1830
 Raman Activ --     1.3785                 1.8380                 2.2663

                    10                     11                     12
                    A'                     A'                     A'
 Frequencies --  1186.6134              1233.2525              1253.8323
 Red. masses --     1.5876                 3.0780                 1.6553
 Frc consts  --     1.3170                 2.7582                 1.5332
 IR Inten    --    13.0302                 4.5470                 5.3593
 Raman Activ --     1.6097                 9.6210                21.5409

                    13                     14                     15
                    A'                     A'                     A'
 Frequencies --  1408.1090              1504.0024              1585.9064
 Red. masses --     1.3613                 3.2417                 2.5766
 Frc consts  --     1.5903                 4.3203                 3.8182
 IR Inten    --     0.5459                10.4179                26.5914
 Raman Activ --     6.9688                23.1191                11.5555

                    16                     17                     18
                    A'                     A'                     A'
 Frequencies --  1664.4232              1743.1167              3421.4809
 Red. masses --     3.2082                 3.6681                 1.0975
 Frc consts  --     5.2365                 6.5666                 7.5698
 IR Inten    --    26.7774                26.2118                10.5924
 Raman Activ --    18.1676                 1.2495                50.7788

                    19                     20                     21
                    A'                     A'                     A'
 Frequencies --  3424.4699              3455.8363              3932.5697
 Red. masses --     1.0940                 1.1075                 1.0827
 Frc consts  --     7.5587                 7.7929                 9.8651
 IR Inten    --     2.3260                 3.6871                94.5743
 Raman Activ --    86.3393                99.9268                77.8232

 - Thermochemistry -
 -------------------
 Temperature   298.150 Kelvin.  Pressure   1.00000 Atm.
 Atom  1 has atomic number  7 and mass  14.00307

 Molecular mass:    68.03745 amu.
 Principal axes and moments of inertia in atomic units:
                           1         2         3
     EIGENVALUES --   181.79012 187.17256 368.96269
           X            0.50206   0.86483   0.00000
           Y            0.86483  -0.50206   0.00000
           Z            0.00000   0.00000   1.00000
 THIS MOLECULE IS AN ASYMMETRIC TOP.
 ROTATIONAL SYMMETRY NUMBER  1.
 ROTATIONAL TEMPERATURES (KELVIN)      0.47645     0.46275     0.23475
 ROTATIONAL CONSTANTS (GHZ)            9.92761     9.64212     4.89139
 Zero-point vibrational energy     201911.5 (Joules/Mol)
                                   48.25800 (Kcal/Mol)
 WARNING-- EXPLICIT CONSIDERATION OF   1 DEGREES OF FREEDOM AS
           VIBRATIONS MAY CAUSE SIGNIFICANT ERROR
 VIBRATIONAL TEMPERATURES:    784.00   995.92  1053.99  1211.35  1393.73
          (KELVIN)           1415.76  1443.33  1468.21  1662.34  1707.26
                             1774.36  1803.97  2025.94  2163.91  2281.75
                             2394.72  2507.94  4922.72  4927.02  4972.15
                             5658.06

 Zero-point correction=                           0.076904 (Hartree/Particle)
 Thermal correction to Energy=                    0.080449
 Thermal correction to Enthalpy=                  0.081394
 Thermal correction to Gibbs Free Energy=         0.050736
 Sum of electronic and zero-point Energies=           -224.747396
 Sum of electronic and thermal Energies=              -224.743851
 Sum of electronic and thermal Enthalpies=            -224.742907
 Sum of electronic and thermal Free Energies=         -224.773564

                     E (Thermal)             CV                S
                      KCAL/MOL        CAL/MOL-KELVIN    CAL/MOL-KELVIN
 TOTAL                   50.483             11.957             64.524
 ELECTRONIC               0.000              0.000              0.000
 TRANSLATIONAL            0.889              2.981             38.570
 ROTATIONAL               0.889              2.981             24.044
 VIBRATIONAL             48.705              5.996              1.910
 VIBRATION  1             0.900              1.151              0.555
                       Q            LOG10(Q)             LN(Q)
 TOTAL BOT       0.460420D-23        -23.336845        -53.735072
 TOTAL V=0       0.108719D+13         12.036304         27.714615
 VIB (BOT)       0.520386D-35        -35.283675        -81.243663
 VIB (BOT)  1    0.289406D+00         -0.538492         -1.239924
 VIB (V=0)       0.122878D+01          0.089475          0.206024
 VIB (V=0)  1    0.107772D+01          0.032504          0.074844
 ELECTRONIC      0.100000D+01          0.000000          0.000000
 TRANSLATIONAL   0.220588D+08          7.343582         16.909224
 ROTATIONAL      0.401095D+05          4.603247         10.599368
 ***** Axes restored to original set *****
 -------------------------------------------------------------------
 Center     Atomic                   Forces (Hartrees/Bohr)
 Number     Number              X              Y              Z
 -------------------------------------------------------------------
    1          7           0.000238021    0.000000000    0.000125709
    2          1          -0.000010029    0.000000000   -0.000003351
    3          6           0.000135334    0.000000000   -0.000241755
    4          1           0.000010554    0.000000000    0.000037359
    5          6          -0.000218889    0.000000000   -0.000073284
    6          1           0.000069834    0.000000000   -0.000032195
    7          1          -0.000046568    0.000000000    0.000023738
    8          6          -0.000015526    0.000000000   -0.000146591
    9          7          -0.000162732    0.000000000    0.000310369
 -------------------------------------------------------------------
 Cartesian Forces:  Max     0.000310369 RMS     0.000115037

 GradGradGradGradGradGradGradGradGradGradGradGradGradGradGradGradGradGrad
 Berny optimization.
 Internal  Forces:  Max     0.000231232 RMS     0.000063858
 Search for a local minimum.
 Step number   1 out of a maximum of  48
 All quantities printed in internal units (Hartrees-Bohrs-Radians)
 Second derivative matrix not updated -- analytic derivatives used.
     Eigenvalues ---    0.00554   0.01477   0.02688   0.03386   0.06867
     Eigenvalues ---    0.07149   0.11513   0.12249   0.12750   0.13892
     Eigenvalues ---    0.26456   0.27819   0.40117   0.41181   0.41622
     Eigenvalues ---    0.41825   0.47810   0.50183   0.55015   0.56712
     Eigenvalues ---    0.697421000.000001000.000001000.000001000.00000
     Eigenvalues --- 1000.000001000.000001000.000001000.000001000.00000
     Eigenvalues --- 1000.000001000.000001000.000001000.000001000.00000
     Eigenvalues --- 1000.000001000.000001000.00000
 Angle between quadratic step and forces=  23.24 degrees.
 Linear search not attempted -- first point.
 Iteration  1 RMS(Cart)=  0.00014116 RMS(Int)=  0.00000002
 Iteration  2 RMS(Cart)=  0.00000002 RMS(Int)=  0.00000001
 Variable       Old X    -DE/DX   Delta X   Delta X   Delta X     New X
                                 (Linear)    (Quad)   (Total)
    R1        2.59115   0.00019   0.00000   0.00049   0.00049   2.59164
    R2        2.43585  -0.00002   0.00000   0.00004   0.00004   2.43590
    R3        1.87435   0.00000   0.00000   0.00001   0.00001   1.87437
    R4        2.01934  -0.00003   0.00000  -0.00008  -0.00008   2.01927
    R5        2.55150   0.00001   0.00000   0.00005   0.00005   2.55155
    R6        2.59247  -0.00023   0.00000  -0.00054  -0.00054   2.59193
    R7        2.02222  -0.00007   0.00000  -0.00018  -0.00018   2.02204
    R8        2.02454  -0.00005   0.00000  -0.00012  -0.00012   2.02442
    R9        2.55017  -0.00008   0.00000  -0.00023  -0.00023   2.54994
    A1        1.83849  -0.00012   0.00000  -0.00028  -0.00028   1.83821
    A2        2.30843   0.00000   0.00000  -0.00021  -0.00021   2.30822
    A3        2.13795   0.00005   0.00000   0.00031   0.00031   2.13826
    A4        1.83681  -0.00005   0.00000  -0.00010  -0.00010   1.83671
    A5        1.92782   0.00002   0.00000   0.00002   0.00002   1.92785
    A6        2.12086  -0.00004   0.00000  -0.00029  -0.00029   2.12057
    A7        2.23450   0.00002   0.00000   0.00027   0.00027   2.23477
    A8        2.19206  -0.00003   0.00000  -0.00012  -0.00012   2.19194
    A9        1.95849   0.00002   0.00000   0.00001   0.00001   1.95850
   A10        2.13264   0.00001   0.00000   0.00010   0.00010   2.13274
   A11        2.21315  -0.00008   0.00000  -0.00022  -0.00022   2.21294
   A12        2.20686  -0.00006   0.00000  -0.00013  -0.00013   2.20673
   A13        1.86317   0.00013   0.00000   0.00035   0.00035   1.86351
    D1        0.00000   0.00000   0.00000   0.00000   0.00000   0.00000
    D2        3.14159   0.00000   0.00000   0.00000   0.00000   3.14159
    D3        3.14159   0.00000   0.00000   0.00000   0.00000   3.14159
    D4        0.00000   0.00000   0.00000   0.00000   0.00000   0.00000
    D5        3.14159   0.00000   0.00000   0.00000   0.00000   3.14159
    D6        0.00000   0.00000   0.00000   0.00000   0.00000   0.00000
    D7        0.00000   0.00000   0.00000   0.00000   0.00000   0.00000
    D8        3.14159   0.00000   0.00000   0.00000   0.00000   3.14159
    D9        0.00000   0.00000   0.00000   0.00000   0.00000   0.00000
   D10        3.14159   0.00000   0.00000   0.00000   0.00000   3.14159
   D11        3.14159   0.00000   0.00000   0.00000   0.00000   3.14159
   D12        0.00000   0.00000   0.00000   0.00000   0.00000   0.00000
   D13        3.14159   0.00000   0.00000   0.00000   0.00000   3.14159
   D14        0.00000   0.00000   0.00000   0.00000   0.00000   0.00000
   D15        0.00000   0.00000   0.00000   0.00000   0.00000   0.00000
   D16        3.14159   0.00000   0.00000   0.00000   0.00000   3.14159
         Item               Value     Threshold  Converged?
 Maximum Force            0.000231     0.000450     YES
 RMS     Force            0.000064     0.000300     YES
 Maximum Displacement     0.000375     0.001800     YES
 RMS     Displacement     0.000141     0.001200     YES
 Predicted change in Energy=-2.006843D-07
 Optimization completed.
    -- Stationary point found.
                         ----------------------------
                         !   Optimized Parameters   !
                         ! (Angstroms and Degrees)  !
 ------------------------                            -------------------------
 ! Name  Definition              Value          Derivative Info.             !
 -----------------------------------------------------------------------------
 ! R1    R(1,5)                  1.3712         -DE/DX =    0.0002           !
 ! R2    R(1,8)                  1.289          -DE/DX =    0.               !
 ! R3    R(2,9)                  0.9919         -DE/DX =    0.               !
 ! R4    R(3,4)                  1.0686         -DE/DX =    0.               !
 ! R5    R(3,5)                  1.3502         -DE/DX =    0.               !
 ! R6    R(3,9)                  1.3719         -DE/DX =   -0.0002           !
 ! R7    R(5,6)                  1.0701         -DE/DX =   -0.0001           !
 ! R8    R(7,8)                  1.0713         -DE/DX =    0.               !
 ! R9    R(8,9)                  1.3495         -DE/DX =   -0.0001           !
 ! A1    A(5,1,8)              105.3376         -DE/DX =   -0.0001           !
 ! A2    A(4,3,5)              132.2632         -DE/DX =    0.               !
 ! A3    A(4,3,9)              122.4953         -DE/DX =    0.               !
 ! A4    A(5,3,9)              105.2415         -DE/DX =    0.               !
 ! A5    A(1,5,3)              110.4561         -DE/DX =    0.               !
 ! A6    A(1,5,6)              121.5164         -DE/DX =    0.               !
 ! A7    A(3,5,6)              128.0275         -DE/DX =    0.               !
 ! A8    A(1,8,7)              125.5958         -DE/DX =    0.               !
 ! A9    A(1,8,9)              112.2132         -DE/DX =    0.               !
 ! A10   A(7,8,9)              122.191          -DE/DX =    0.               !
 ! A11   A(2,9,3)              126.8044         -DE/DX =   -0.0001           !
 ! A12   A(2,9,8)              126.444          -DE/DX =   -0.0001           !
 ! A13   A(3,9,8)              106.7516         -DE/DX =    0.0001           !
 ! D1    D(8,1,5,3)              0.             -DE/DX =    0.               !
 ! D2    D(8,1,5,6)            180.             -DE/DX =    0.               !
 ! D3    D(5,1,8,7)            180.             -DE/DX =    0.               !
 ! D4    D(5,1,8,9)              0.             -DE/DX =    0.               !
 ! D5    D(4,3,5,1)            180.             -DE/DX =    0.               !
 ! D6    D(4,3,5,6)              0.             -DE/DX =    0.               !
 ! D7    D(9,3,5,1)              0.             -DE/DX =    0.               !
 ! D8    D(9,3,5,6)            180.             -DE/DX =    0.               !
 ! D9    D(4,3,9,2)              0.             -DE/DX =    0.               !
 ! D10   D(4,3,9,8)            180.             -DE/DX =    0.               !
 ! D11   D(5,3,9,2)            180.             -DE/DX =    0.               !
 ! D12   D(5,3,9,8)              0.             -DE/DX =    0.               !
 ! D13   D(1,8,9,2)            180.             -DE/DX =    0.               !
 ! D14   D(1,8,9,3)              0.             -DE/DX =    0.               !
 ! D15   D(7,8,9,2)              0.             -DE/DX =    0.               !
 ! D16   D(7,8,9,3)            180.             -DE/DX =    0.               !
 -----------------------------------------------------------------------------
 GradGradGradGradGradGradGradGradGradGradGradGradGradGradGradGradGradGrad

 1\1\GINC-QCHEM5\Freq\RHF\6-31G(d,p)\C3H4N2\RDJ3\03-Apr-2000\0\\#N GEOM
 =ALLCHECK GUESS=TCHECK RHF/6-31G(D,P) FREQ\\1H imidazole C3H4N2 casno=
 288324\\0,1\N,0.4985517328,0.,1.110643913\H,0.4937632207,0.,-2.0279007
 695\C,-1.0131765047,0.,-0.5361421309\H,-1.8907519608,0.,-1.1458529785\
 C,-0.837573126,0.,0.8025872872\H,-1.5876206179,0.,1.5658511773\H,2.172
 7792756,0.,-0.1597340224\C,1.1100626021,0.,-0.0240680518\N,0.252298589
 2,0.,-1.0658762036\\Version=x86-Linux-G98RevA.4\State=1-A'\HF=-224.824
 3002\RMSD=7.063e-10\RMSF=1.150e-04\Dipole=-0.104396,0.,-1.5126338\Dipo
 leDeriv=-0.5289103,0.,-0.0095938,0.,-0.3786892,0.,0.0869938,0.,-0.6521
 604,0.2023023,0.,-0.0020917,0.,0.3720355,0.,-0.0074791,0.,0.2640943,0.
 0216527,0.,-0.3032988,0.,-0.1135473,0.,-0.0161221,0.,0.2295314,0.00859
 57,0.,-0.04347,0.,0.1863633,0.,-0.0607281,0.,0.0458721,0.2820049,0.,-0
 .0284484,0.,-0.1027823,0.,-0.1385488,0.,0.1373719,-0.0164269,0.,0.0749
 088,0.,0.1515589,0.,0.0812816,0.,0.0206038,-0.0433076,0.,0.0302927,0.,
 0.1404435,0.,0.0328746,0.,0.070259,0.2700459,0.,0.0877196,0.,0.1177343
 ,0.,-0.0507573,0.,0.6643002,-0.1959567,0.,0.1939817,0.,-0.3731167,0.,0
 .0724854,0.,-0.7798722\Polar=44.4624917,0.,17.4751072,-0.7270576,0.,43
 .6469154\PolarDeriv=-9.2280459,0.,-0.2559717,-0.7339562,0.,5.7458906,0
 .,0.4438771,0.,0.,3.094173,0.,5.7100563,0.,0.2913172,2.0527507,0.,6.44
 69759,0.7087885,0.,-0.0153512,-1.6110883,0.,1.4953506,0.,0.2669862,0.,
 0.,-0.9863813,0.,-0.9739138,0.,-0.1143634,1.7536466,0.,-8.6503593,0.50
 5389,0.,0.3018769,-1.0681741,0.,-1.676968,0.,-3.0972151,0.,0.,-4.06877
 22,0.,-5.173181,0.,-0.8911164,-1.8327873,0.,-3.5558538,-6.6031617,0.,-
 0.4146892,-3.0778704,0.,-1.8980994,0.,-0.889956,0.,0.,-0.2873034,0.,-2
 .8330312,0.,-0.1979964,-2.8142019,0.,-3.1767699,7.4320257,0.,0.1889085
 ,2.9019158,0.,-1.8928824,0.,-0.5568175,0.,0.,4.0453565,0.,5.8336589,0.
 ,0.496224,3.3245798,0.,2.4780699,-4.5842349,0.,-0.3369736,3.5242645,0.
 ,-2.7503102,0.,-1.2568412,0.,0.,0.7027985,0.,2.6265937,0.,0.3079187,-3
 .077295,0.,5.0687416,9.8513489,0.,0.5094558,-0.6327106,0.,0.7723777,0.
 ,1.183454,0.,0.,-0.0489288,0.,-0.9583175,0.,-0.0601557,1.662276,0.,-0.
 3873163,4.6877664,0.,0.5581611,-0.2381166,0.,0.2751371,0.,3.6006648,0.
 ,0.,-1.0226237,0.,-5.0443191,0.,-0.2485873,-0.6648438,0.,2.0252178,-2.
 7698761,0.,-0.5354168,0.9357359,0.,-0.070496,0.,0.3058477,0.,0.,-1.428
 3186,0.,0.8124538,0.,0.4167593,-0.4041251,0.,-0.248706\HyperPolar=33.7
 672502,0.,1.0758825,0.,-13.9581488,0.,-3.2560564,-27.1751787,0.,-26.49
 75316\PG=CS [SG(C3H4N2)]\NImag=0\\0.57128802,0.,0.12339065,-0.07966865
 ,0.,0.71670735,-0.00291589,0.,-0.01017988,0.09824987,0.,0.00773843,0.,
 0.,0.01216357,-0.00450212,0.,-0.00254071,-0.11296716,0.,0.52083325,-0.
 03511624,0.,-0.01205456,0.01099361,0.,-0.00222407,0.83532348,0.,0.0195
 3865,0.,0.,-0.00854858,0.,0.,0.14010725,-0.10626191,0.,-0.02072554,0.0
 3151215,0.,-0.00063504,0.18827849,0.,0.87930961,0.00265741,0.,0.000664
 79,0.00015830,0.,0.00011996,-0.28680664,0.,-0.15046385,0.30218567,0.,0
 .00882642,0.,0.,-0.00121720,0.,0.,-0.03049273,0.,0.,0.02432852,-0.0044
 0715,0.,-0.00626959,-0.00126553,0.,0.00015919,-0.16091410,0.,-0.186003
 29,0.16680382,0.,0.17554491,-0.28809033,0.,-0.04977354,-0.01018831,0.,
 0.00034890,-0.12644528,0.,-0.02660275,0.00620103,0.,-0.02598437,0.7537
 6116,0.,-0.08408826,0.,0.,0.00221033,0.,0.,-0.08245601,0.,0.,0.0007385
 6,0.,0.,0.16681439,-0.05002083,0.,-0.14048851,0.00390984,0.,0.00181985
 ,-0.05041121,0.,-0.47876743,0.00077391,0.,0.00288807,-0.16445389,0.,0.
 93842744,-0.02016237,0.,0.02521457,0.00089575,0.,-0.00003100,0.0110407
 0,0.,-0.00555824,-0.00028044,0.,0.00089694,-0.21911767,0.,0.15851143,0
 .23403775,0.,-0.00432440,0.,0.,0.00245184,0.,0.,0.00164722,0.,0.,-0.00
 328447,0.,0.,-0.03911775,0.,0.,0.02925219,-0.00749830,0.,0.01472047,0.
 00143263,0.,0.00023903,0.02433639,0.,-0.00790303,-0.00066913,0.,-0.000
 16563,0.16228034,0.,-0.24389656,-0.17435109,0.,0.24262278,-0.00974018,
 0.,0.00432211,-0.00062995,0.,-0.00055218,0.00134583,0.,-0.00415152,-0.
 00044765,0.,0.00045001,0.00151803,0.,0.00324785,-0.00041451,0.,-0.0002
 0320,0.40621902,0.,-0.00347950,0.,0.,-0.00174346,0.,0.,0.00324908,0.,0
 .,0.00199371,0.,0.,0.00914494,0.,0.,0.00094095,0.,0.,0.02889425,0.0348
 8162,0.,0.00231102,0.00074021,0.,0.00044096,-0.00067616,0.,-0.00697206
 ,-0.00123236,0.,0.00113132,0.00307123,0.,-0.00505967,0.00161947,0.,0.0
 0073112,-0.04154101,0.,0.07330867,-0.21834209,0.,0.15887843,0.02298519
 ,0.,0.01557484,-0.10438585,0.,0.00527154,-0.00351074,0.,0.00473529,-0.
 09218645,0.,0.01859906,-0.00725326,0.,-0.00419772,-0.38281609,0.,0.037
 88876,1.03380131,0.,-0.09519909,0.,0.,-0.00932128,0.,0.,0.01872352,0.,
 0.,0.00302780,0.,0.,0.01142035,0.,0.,0.00566928,0.,0.,-0.03976157,0.,0
 .,0.18084693,0.16475304,0.,-0.43530239,-0.01857627,0.,-0.01169503,-0.0
 5639884,0.,-0.01872355,0.00604434,0.,-0.00561580,0.10326224,0.,0.01297
 450,-0.00323131,0.,0.00019877,0.03370241,0.,-0.07604242,-0.11648218,0.
 ,0.78642392,0.00042169,0.,-0.03740327,-0.11954858,0.,0.10423283,-0.305
 94961,0.,0.06797611,-0.02015694,0.,0.01968509,-0.02545217,0.,0.0798438
 2,0.00125406,0.,-0.00112992,-0.01503450,0.,-0.03475175,-0.24829202,0.,
 -0.11307344,0.73275807,0.,0.02759708,0.,0.,-0.00373366,0.,0.,-0.061768
 41,0.,0.,-0.00392062,0.,0.,0.01533344,0.,0.,0.00676514,0.,0.,0.0007616
 0,0.,0.,-0.07540594,0.,0.,0.09437137,0.05272430,0.,-0.12841212,0.10539
 401,0.,-0.50862150,0.07006406,0.,-0.15957968,-0.02204148,0.,0.01833082
 ,-0.00214816,0.,-0.08789770,-0.00307077,0.,-0.00654695,0.00472553,0.,0
 .01015106,-0.12026802,0.,-0.25221800,-0.08537945,0.,1.11479407\\-0.000
 23802,0.,-0.00012571,0.00001003,0.,0.00000335,-0.00013533,0.,0.0002417
 6,-0.00001055,0.,-0.00003736,0.00021889,0.,0.00007328,-0.00006983,0.,0
 .00003220,0.00004657,0.,-0.00002374,0.00001553,0.,0.00014659,0.0001627
 3,0.,-0.00031037\\\@

 OF ALL THE WONDERS OF THE UNIVERSE, THE GREATEST IS MAN.

                                    -- ARISTOTLE
 Job cpu time:  0 days  0 hours 13 minutes 46.3 seconds.
 File lengths (MBytes):  RWF=   15 Int=    0 D2E=    0 Chk=    3 Scr=    1
 Normal termination of Gaussian 98.
