 Gaussian 98, Revision A.6,
 Gaussian 98:  IBM-RS6000-G98RevA.6 19-Oct-1998

 ---------------------
 #HF/6-31+G** opt freq
 ---------------------

 --------------------------------
 1H imidazole C3H4N2 casno=288324
 --------------------------------
 Symbolic Z-matrix:
 Charge =  0 Multiplicity = 1

 SCF Done:  E(RHF) =  -224.781629196     A.U. after   14 cycles
 SCF Done:  E(RHF) =  -224.827672568     A.U. after   13 cycles
 SCF Done:  E(RHF) =  -224.832300765     A.U. after   13 cycles
 SCF Done:  E(RHF) =  -224.832592004     A.U. after   11 cycles
 SCF Done:  E(RHF) =  -224.832670653     A.U. after   11 cycles
 SCF Done:  E(RHF) =  -224.832674817     A.U. after    9 cycles
 Optimization completed.
    -- Stationary point found.
 Normal termination of Gaussian 98.

 --------------------------------------------------
 #N Geom=AllCheck Guess=TCheck RHF/6-31+G(d,p) Freq
 --------------------------------------------------

 1H imidazole C3H4N2 casno=288324
 --------------------------------
 Redundant internal coordinates taken from checkpointfile:
 /wrk/rdj3/Gau-5318.chk
 Charge =  0 Multiplicity = 1

                         Standard orientation:
 ---------------------------------------------------------------------
 Center     Atomic     Atomic              Coordinates (Angstroms)
 Number     Number      Type              X           Y           Z
 ---------------------------------------------------------------------
    1          7             0       -0.740511   -0.966079    0.000000
    2          1             0       -0.013796    2.088232    0.000000
    3          6             0        1.110241    0.289230    0.000000
    4          1             0        2.105105    0.679384    0.000000
    5          6             0        0.630493   -0.975998    0.000000
    6          1             0        1.183761   -1.891541    0.000000
    7          1             0       -2.079120    0.655414    0.000000
    8          6             0       -1.076130    0.280199    0.000000
    9          7             0        0.000000    1.095783    0.000000
 ---------------------------------------------------------------------

 SCF Done:  E(RHF) =  -224.832674817     A.U. after    1 cycles

  The electronic state is 1-A'.
 Alpha  occ. eigenvalues --  -15.63011 -15.54970 -11.29699 -11.26457 -11.24405
 Alpha  occ. eigenvalues --   -1.35621  -1.17646  -1.01793  -0.83549  -0.80642
 Alpha  occ. eigenvalues --   -0.76728  -0.61624  -0.60690  -0.60474  -0.57546
 Alpha  occ. eigenvalues --   -0.43601  -0.40199  -0.32618
 Alpha virt. eigenvalues --    0.06360   0.08165   0.09618   0.10009   0.11004
 Alpha virt. eigenvalues --    0.11792   0.13483   0.14404   0.15536   0.15939
 Alpha virt. eigenvalues --    0.19984   0.20041   0.21242   0.22151   0.24168

  Exact polarizability:  49.096   0.172  48.894   0.000   0.000  29.663
 Approx polarizability:  44.579   0.939  47.468   0.000   0.000  29.369

                     1                      2                      3
                    A"                     A"                     A"
 Frequencies --   555.9804               686.5109               726.9358
 Red. masses --     1.4597                 2.1772                 2.9156
 Frc consts  --     0.2659                 0.6046                 0.9078
 IR Inten    --   135.4387                 6.7877                12.8318
 Raman Activ --     0.0900                 0.6712                 0.3086

                     4                      5                      6
                    A"                     A"                     A'
 Frequencies --   838.9358               969.9119               982.5470
 Red. masses --     1.2444                 1.4043                 5.5806
 Frc consts  --     0.5160                 0.7784                 3.1742
 IR Inten    --    70.8513                24.4854                 6.0148
 Raman Activ --     1.7890                 1.3054                 2.0515

                     7                      8                      9
                    A"                     A'                     A'
 Frequencies --  1003.4170              1018.2278              1152.1796
 Red. masses --     1.3718                 4.7085                 1.7007
 Frc consts  --     0.8138                 2.8762                 1.3302
 IR Inten    --     0.0575                 2.3025                60.3517
 Raman Activ --     2.6990                 2.1137                 1.7545

                    10                     11                     12
                    A'                     A'                     A'
 Frequencies --  1182.9057              1231.2675              1249.7849
 Red. masses --     1.5931                 3.0489                 1.6876
 Frc consts  --     1.3134                 2.7233                 1.5530
 IR Inten    --    15.9772                 5.1550                 5.6204
 Raman Activ --     1.6034                10.5088                24.3510

                    13                     14                     15
                    A'                     A'                     A'
 Frequencies --  1404.4288              1496.9951              1578.1151
 Red. masses --     1.3636                 3.2784                 2.5738
 Frc consts  --     1.5847                 4.3287                 3.7765
 IR Inten    --     0.6301                 9.6437                26.0341
 Raman Activ --    10.8457                38.0155                24.8117

                    16                     17                     18
                    A'                     A'                     A'
 Frequencies --  1652.0616              1730.4145              3428.0501
 Red. masses --     3.1072                 3.5387                 1.0962
 Frc consts  --     4.9966                 6.2431                 7.5897
 IR Inten    --    29.3203                24.7469                 7.5492
 Raman Activ --    38.3581                 2.8594                39.8400

                    19                     20                     21
                    A'                     A'                     A'
 Frequencies --  3429.8163              3457.6578              3927.6789
 Red. masses --     1.0953                 1.1074                 1.0828
 Frc consts  --     7.5918                 7.8006                 9.8421
 IR Inten    --     0.5314                 2.0045               103.1687
 Raman Activ --    87.5867                98.2014                81.9572

 - Thermochemistry -
 -------------------
 Temperature   298.150 Kelvin.  Pressure   1.00000 Atm.
 Atom  1 has atomic number  7 and mass  14.00307

 Molecular mass:    68.03745 amu.
 Principal axes and moments of inertia in atomic units:
                           1         2         3
     EIGENVALUES --   182.13889 187.38300 369.52189
           X            0.48647   0.87370   0.00000
           Y            0.87370  -0.48647   0.00000
           Z            0.00000   0.00000   1.00000
 THIS MOLECULE IS AN ASYMMETRIC TOP.
 ROTATIONAL SYMMETRY NUMBER  1.
 ROTATIONAL TEMPERATURES (KELVIN)      0.47554     0.46223     0.23439
 ROTATIONAL CONSTANTS (GHZ)            9.90860     9.63130     4.88399
 Zero-point vibrational energy     201593.7 (Joules/Mol)
                                   48.18204 (Kcal/Mol)
 WARNING-- EXPLICIT CONSIDERATION OF   1 DEGREES OF FREEDOM AS
           VIBRATIONS MAY CAUSE SIGNIFICANT ERROR
 VIBRATIONAL TEMPERATURES:    799.93   987.73  1045.89  1207.03  1395.48
          (KELVIN)           1413.66  1443.68  1464.99  1657.72  1701.93
                             1771.51  1798.15  2020.65  2153.83  2270.54
                             2376.93  2489.67  4932.17  4934.71  4974.77
                             5651.02

 Zero-point correction=                           0.076783 (Hartree/Particle)
 Thermal correction to Energy=                    0.080328
 Thermal correction to Enthalpy=                  0.081272
 Thermal correction to Gibbs Free Energy=         0.050614
 Sum of electronic and zero-point Energies=           -224.755892
 Sum of electronic and thermal Energies=              -224.752347
 Sum of electronic and thermal Enthalpies=            -224.751402
 Sum of electronic and thermal Free Energies=         -224.782060

                     E (Thermal)             CV                S
                      KCAL/MOL        CAL/MOL-KELVIN    CAL/MOL-KELVIN
 TOTAL                   50.407             11.978             64.525
 ELECTRONIC               0.000              0.000              0.000
 TRANSLATIONAL            0.889              2.981             38.570
 ROTATIONAL               0.889              2.981             24.049
 VIBRATIONAL             48.629              6.016              1.906
 VIBRATION  1             0.911              1.127              0.532
                       Q            LOG10(Q)             LN(Q)
 TOTAL BOT       0.523769D-23        -23.280860        -53.606162
 TOTAL V=0       0.108796D+13         12.036613         27.715326
 VIB (BOT)       0.590638D-35        -35.228679        -81.117031
 VIB (BOT)  1    0.280642D+00         -0.551847         -1.270676
 VIB (V=0)       0.122686D+01          0.088795          0.204458
 VIB (V=0)  1    0.107338D+01          0.030752          0.070809
 ELECTRONIC      0.100000D+01          0.000000          0.000000
 TRANSLATIONAL   0.220588D+08          7.343582         16.909224
 ROTATIONAL      0.402009D+05          4.604236         10.601645
 ***** Axes restored to original set *****
 -------------------------------------------------------------------
 Center     Atomic                   Forces (Hartrees/Bohr)
 Number     Number              X              Y              Z
 -------------------------------------------------------------------
    1          7           0.000229333    0.000000000    0.000125768
    2          1          -0.000010710    0.000000000    0.000000832
    3          6           0.000134644    0.000000000   -0.000229020
    4          1           0.000012367    0.000000000    0.000037636
    5          6          -0.000223850    0.000000000   -0.000069928
    6          1           0.000065854    0.000000000   -0.000027685
    7          1          -0.000043550    0.000000000    0.000023069
    8          6          -0.000021709    0.000000000   -0.000162409
    9          7          -0.000142379    0.000000000    0.000301738
 -------------------------------------------------------------------
 Cartesian Forces:  Max     0.000301738 RMS     0.000112443

 GradGradGradGradGradGradGradGradGradGradGradGradGradGradGradGradGradGrad
 Berny optimization.
 Internal  Forces:  Max     0.000218072 RMS     0.000061502
 Search for a local minimum.
 Step number   1 out of a maximum of  48
 All quantities printed in internal units (Hartrees-Bohrs-Radians)
 Second derivative matrix not updated -- analytic derivatives used.
     Eigenvalues ---    0.00578   0.01479   0.02681   0.03350   0.06769
     Eigenvalues ---    0.07079   0.11481   0.12216   0.12685   0.13795
     Eigenvalues ---    0.26487   0.27788   0.39963   0.41319   0.41630
     Eigenvalues ---    0.41839   0.47245   0.49783   0.54849   0.55641
     Eigenvalues ---    0.688221000.000001000.000001000.000001000.00000
     Eigenvalues --- 1000.000001000.000001000.000001000.000001000.00000
     Eigenvalues --- 1000.000001000.000001000.000001000.000001000.00000
     Eigenvalues --- 1000.000001000.000001000.00000
 Angle between quadratic step and forces=  23.36 degrees.
 Linear search not attempted -- first point.
 Iteration  1 RMS(Cart)=  0.00013584 RMS(Int)=  0.00000002
 Iteration  2 RMS(Cart)=  0.00000002 RMS(Int)=  0.00000001
 Variable       Old X    -DE/DX   Delta X   Delta X   Delta X     New X
                                 (Linear)    (Quad)   (Total)
    R1        2.59089   0.00019   0.00000   0.00049   0.00049   2.59138
    R2        2.43903  -0.00001   0.00000   0.00006   0.00006   2.43908
    R3        1.87564   0.00000   0.00000   0.00000   0.00000   1.87564
    R4        2.01942  -0.00003   0.00000  -0.00008  -0.00008   2.01934
    R5        2.55704   0.00001   0.00000   0.00004   0.00004   2.55709
    R6        2.59324  -0.00022   0.00000  -0.00051  -0.00051   2.59273
    R7        2.02150  -0.00007   0.00000  -0.00017  -0.00017   2.02133
    R8        2.02366  -0.00005   0.00000  -0.00011  -0.00011   2.02355
    R9        2.55164  -0.00009   0.00000  -0.00025  -0.00025   2.55139
    A1        1.84109  -0.00011   0.00000  -0.00027  -0.00027   1.84082
    A2        2.30696   0.00000   0.00000  -0.00021  -0.00021   2.30675
    A3        2.13959   0.00004   0.00000   0.00029   0.00029   2.13988
    A4        1.83664  -0.00004   0.00000  -0.00008  -0.00008   1.83655
    A5        1.92599   0.00001   0.00000   0.00000   0.00000   1.92599
    A6        2.12161  -0.00003   0.00000  -0.00029  -0.00029   2.12133
    A7        2.23558   0.00002   0.00000   0.00028   0.00028   2.23587
    A8        2.19183  -0.00003   0.00000  -0.00013  -0.00013   2.19171
    A9        1.95627   0.00002   0.00000   0.00002   0.00002   1.95628
   A10        2.13509   0.00001   0.00000   0.00011   0.00011   2.13520
   A11        2.21297  -0.00007   0.00000  -0.00021  -0.00021   2.21275
   A12        2.20542  -0.00005   0.00000  -0.00012  -0.00012   2.20530
   A13        1.86479   0.00013   0.00000   0.00033   0.00033   1.86513
    D1        0.00000   0.00000   0.00000   0.00000   0.00000   0.00000
    D2        3.14159   0.00000   0.00000   0.00000   0.00000   3.14159
    D3        3.14159   0.00000   0.00000   0.00000   0.00000   3.14159
    D4        0.00000   0.00000   0.00000   0.00000   0.00000   0.00000
    D5        3.14159   0.00000   0.00000   0.00000   0.00000   3.14159
    D6        0.00000   0.00000   0.00000   0.00000   0.00000   0.00000
    D7        0.00000   0.00000   0.00000   0.00000   0.00000   0.00000
    D8        3.14159   0.00000   0.00000   0.00000   0.00000   3.14159
    D9        0.00000   0.00000   0.00000   0.00000   0.00000   0.00000
   D10        3.14159   0.00000   0.00000   0.00000   0.00000   3.14159
   D11        3.14159   0.00000   0.00000   0.00000   0.00000   3.14159
   D12        0.00000   0.00000   0.00000   0.00000   0.00000   0.00000
   D13        3.14159   0.00000   0.00000   0.00000   0.00000   3.14159
   D14        0.00000   0.00000   0.00000   0.00000   0.00000   0.00000
   D15        0.00000   0.00000   0.00000   0.00000   0.00000   0.00000
   D16        3.14159   0.00000   0.00000   0.00000   0.00000   3.14159
         Item               Value     Threshold  Converged?
 Maximum Force            0.000218     0.000450     YES
 RMS     Force            0.000062     0.000300     YES
 Maximum Displacement     0.000362     0.001800     YES
 RMS     Displacement     0.000136     0.001200     YES
 Predicted change in Energy=-1.898845D-07
 Optimization completed.
    -- Stationary point found.
                         ----------------------------
                         !   Optimized Parameters   !
                         ! (Angstroms and Degrees)  !
 ------------------------                            -------------------------
 ! Name  Definition              Value          Derivative Info.             !
 -----------------------------------------------------------------------------
 ! R1    R(1,5)                  1.371          -DE/DX =    0.0002           !
 ! R2    R(1,8)                  1.2907         -DE/DX =    0.               !
 ! R3    R(2,9)                  0.9925         -DE/DX =    0.               !
 ! R4    R(3,4)                  1.0686         -DE/DX =    0.               !
 ! R5    R(3,5)                  1.3531         -DE/DX =    0.               !
 ! R6    R(3,9)                  1.3723         -DE/DX =   -0.0002           !
 ! R7    R(5,6)                  1.0697         -DE/DX =   -0.0001           !
 ! R8    R(7,8)                  1.0709         -DE/DX =    0.               !
 ! R9    R(8,9)                  1.3503         -DE/DX =   -0.0001           !
 ! A1    A(5,1,8)              105.4866         -DE/DX =   -0.0001           !
 ! A2    A(4,3,5)              132.1793         -DE/DX =    0.               !
 ! A3    A(4,3,9)              122.5893         -DE/DX =    0.               !
 ! A4    A(5,3,9)              105.2315         -DE/DX =    0.               !
 ! A5    A(1,5,3)              110.3512         -DE/DX =    0.               !
 ! A6    A(1,5,6)              121.5593         -DE/DX =    0.               !
 ! A7    A(3,5,6)              128.0895         -DE/DX =    0.               !
 ! A8    A(1,8,7)              125.5827         -DE/DX =    0.               !
 ! A9    A(1,8,9)              112.0859         -DE/DX =    0.               !
 ! A10   A(7,8,9)              122.3314         -DE/DX =    0.               !
 ! A11   A(2,9,3)              126.7936         -DE/DX =   -0.0001           !
 ! A12   A(2,9,8)              126.3615         -DE/DX =   -0.0001           !
 ! A13   A(3,9,8)              106.8449         -DE/DX =    0.0001           !
 ! D1    D(8,1,5,3)              0.             -DE/DX =    0.               !
 ! D2    D(8,1,5,6)            180.             -DE/DX =    0.               !
 ! D3    D(5,1,8,7)            180.             -DE/DX =    0.               !
 ! D4    D(5,1,8,9)              0.             -DE/DX =    0.               !
 ! D5    D(4,3,5,1)            180.             -DE/DX =    0.               !
 ! D6    D(4,3,5,6)              0.             -DE/DX =    0.               !
 ! D7    D(9,3,5,1)              0.             -DE/DX =    0.               !
 ! D8    D(9,3,5,6)            180.             -DE/DX =    0.               !
 ! D9    D(4,3,9,2)              0.             -DE/DX =    0.               !
 ! D10   D(4,3,9,8)            180.             -DE/DX =    0.               !
 ! D11   D(5,3,9,2)            180.             -DE/DX =    0.               !
 ! D12   D(5,3,9,8)              0.             -DE/DX =    0.               !
 ! D13   D(1,8,9,2)            180.             -DE/DX =    0.               !
 ! D14   D(1,8,9,3)              0.             -DE/DX =    0.               !
 ! D15   D(7,8,9,2)              0.             -DE/DX =    0.               !
 ! D16   D(7,8,9,3)            180.             -DE/DX =    0.               !
 -----------------------------------------------------------------------------
 GradGradGradGradGradGradGradGradGradGradGradGradGradGradGradGradGradGrad

 1\1\GINC-QUANTUM\Freq\RHF\6-31+G(d,p)\C3H4N2\RDJ3\03-Apr-2000\0\\#N GE
 OM=ALLCHECK GUESS=TCHECK RHF/6-31+G(D,P) FREQ\\1H imidazole C3H4N2 cas
 no=288324\\0,1\N,0.4979810304,0.,1.1107113967\H,0.4945945376,0.,-2.028
 8616384\C,-1.0137222147,0.,-0.5372681914\H,-1.89191586,0.,-1.146159930
 9\C,-0.8384165101,0.,0.8044577473\H,-1.5877556248,0.,1.5678807557\H,2.
 1741939628,0.,-0.1587074327\C,1.1117364909,0.,-0.0246980165\N,0.252489
 8821,0.,-1.0662972525\\Version=IBM-RS6000-G98RevA.6\State=1-A'\HF=-224
 .8326748\RMSD=9.821e-10\RMSF=1.124e-04\Dipole=-0.1010703,0.,-1.553426\
 DipoleDeriv=-0.5099204,0.,-0.0168928,0.,-0.3633927,0.,0.0775392,0.,-0.
 6495182,0.2007549,0.,-0.0078245,0.,0.3672077,0.,-0.0099085,0.,0.272854
 8,-0.007542,0.,-0.3304323,0.,-0.1766959,0.,-0.0941419,0.,0.2243759,0.0
 172267,0.,-0.0408666,0.,0.2270955,0.,-0.0558776,0.,0.0488869,0.297269,
 0.,0.0399945,0.,-0.1535217,0.,-0.0775666,0.,0.1269466,-0.007952,0.,0.0
 615886,0.,0.1868182,0.,0.0764709,0.,0.0313329,-0.0247518,0.,0.0327584,
 0.,0.1681866,0.,0.0287203,0.,0.0695807,0.2058338,0.,0.0518563,0.,0.073
 5318,0.,-0.0166596,0.,0.7114289,-0.1709185,0.,0.2098184,0.,-0.3292295,
 0.,0.0714236,0.,-0.8358885\Polar=49.0082564,0.,29.6629269,0.1986233,0.
 ,48.9815809\PolarDeriv=-12.3091013,0.,-1.0230443,-1.6179478,0.,5.46856
 91,0.,0.3719219,0.,0.,2.2151297,0.,6.9501132,0.,3.1885519,2.5126472,0.
 ,6.3029439,0.7179689,0.,0.0661541,-1.4162428,0.,1.677939,0.,-0.0058243
 ,0.,0.,-0.3620842,0.,-1.419153,0.,-0.6211782,1.682538,0.,-8.6998331,1.
 1525424,0.,-1.2102706,-1.9895784,0.,-1.2276619,0.,-4.2039992,0.,0.,-4.
 6276189,0.,-8.9599427,0.,-7.8751948,-2.1671634,0.,-5.0424019,-6.644123
 3,0.,-0.3388065,-3.2004877,0.,-2.3394422,0.,0.4436078,0.,0.,0.4768112,
 0.,-2.9297292,0.,0.1161954,-2.7314382,0.,-3.1445762,9.5515547,0.,0.023
 0165,3.5348638,0.,-3.0509525,0.,-1.2103843,0.,0.,4.7127049,0.,9.632736
 7,0.,7.9018921,3.9963074,0.,4.7320311,-4.549369,0.,-0.2153973,3.442469
 4,0.,-2.7579118,0.,-0.3277815,0.,0.,-0.249999,0.,2.8745443,0.,-0.00488
 83,-3.0673953,0.,4.8204025,9.8586307,0.,0.4270844,-0.9376665,0.,0.8346
 405,0.,-0.0055614,0.,0.,0.0033771,0.,-0.9509244,0.,0.0444246,1.5951826
 ,0.,-0.3563421,6.9298793,0.,3.243132,0.0501955,0.,1.3434924,0.,4.49511
 2,0.,0.,-0.5976484,0.,-6.834015,0.,-1.7361086,-2.3693971,0.,1.5952542,
 -4.7079824,0.,-0.9718683,2.1343944,0.,0.0513274,0.,0.4429089,0.,0.,-1.
 5706724,0.,1.6363702,0.,-1.0136941,0.5487187,0.,-0.2074784\HyperPolar=
 49.3850384,0.,-49.6647476,0.,-19.1440565,0.,5.7297224,-39.5256682,0.,2
 5.4144642\PG=CS [SG(C3H4N2)]\NImag=0\\0.56873784,0.,0.12190781,-0.0767
 9260,0.,0.70955541,-0.00293166,0.,-0.01008970,0.09828026,0.,0.00760744
 ,0.,0.,0.01248366,-0.00432597,0.,-0.00232998,-0.11282655,0.,0.51935176
 ,-0.03534415,0.,-0.01356350,0.01077344,0.,-0.00219867,0.83231880,0.,0.
 02002218,0.,0.,-0.00829224,0.,0.,0.14008241,-0.10452998,0.,-0.02114091
 ,0.03142903,0.,-0.00043468,0.18945717,0.,0.86529029,0.00257934,0.,0.00
 087643,0.00013920,0.,0.00012793,-0.28753141,0.,-0.15116180,0.30257427,
 0.,0.00843044,0.,0.,-0.00116578,0.,0.,-0.03078229,0.,0.,0.02412439,-0.
 00437814,0.,-0.00613871,-0.00124659,0.,0.00018513,-0.16156384,0.,-0.18
 550018,0.16699830,0.,0.17520836,-0.28816681,0.,-0.04847289,-0.01003392
 ,0.,0.00025726,-0.12658933,0.,-0.02539715,0.00651015,0.,-0.02559803,0.
 75230058,0.,-0.08357353,0.,0.,0.00244423,0.,0.,-0.08278828,0.,0.,0.001
 36111,0.,0.,0.16643553,-0.04907763,0.,-0.14093079,0.00401497,0.,0.0018
 8437,-0.04809223,0.,-0.46616796,0.00090395,0.,0.00253347,-0.16862021,0
 .,0.92559344,-0.01978534,0.,0.02528827,0.00088152,0.,-0.00004172,0.011
 25263,0.,-0.00574400,-0.00030638,0.,0.00089647,-0.21988117,0.,0.159507
 94,0.23451123,0.,-0.00403413,0.,0.,0.00229425,0.,0.,0.00200600,0.,0.,-
 0.00333115,0.,0.,-0.03930594,0.,0.,0.02909329,-0.00796129,0.,0.0145382
 5,0.00139703,0.,0.00023915,0.02385882,0.,-0.00795472,-0.00066503,0.,-0
 .00015144,0.16387472,0.,-0.24420951,-0.17513710,0.,0.24310718,-0.00931
 267,0.,0.00371154,-0.00064313,0.,-0.00058775,0.00124281,0.,-0.00394424
 ,-0.00041176,0.,0.00044306,0.00143725,0.,0.00322362,-0.00039776,0.,-0.
 00021525,0.40777361,0.,-0.00312564,0.,0.,-0.00173082,0.,0.,0.00337838,
 0.,0.,0.00190736,0.,0.,0.00897410,0.,0.,0.00088165,0.,0.,0.02887840,0.
 03490919,0.,0.00220390,0.00069865,0.,0.00043656,-0.00076854,0.,-0.0069
 8275,-0.00121328,0.,0.00112232,0.00317142,0.,-0.00517646,0.00160438,0.
 ,0.00073179,-0.04146591,0.,0.07290287,-0.21803330,0.,0.15645253,0.0226
 6572,0.,0.01531454,-0.10346115,0.,0.00397944,-0.00363694,0.,0.00469055
 ,-0.09043904,0.,0.01973218,-0.00742543,0.,-0.00419433,-0.38530568,0.,0
 .03778582,1.03264843,0.,-0.09432446,0.,0.,-0.00892568,0.,0.,0.01777185
 ,0.,0.,0.00308526,0.,0.,0.01178005,0.,0.,0.00554225,0.,0.,-0.04015855,
 0.,0.,0.18000664,0.16089354,0.,-0.42752866,-0.01884785,0.,-0.01146944,
 -0.05557172,0.,-0.01661935,0.00580877,0.,-0.00553905,0.10051874,0.,0.0
 1359943,-0.00299359,0.,0.00019040,0.03426105,0.,-0.07513383,-0.1160015
 2,0.,0.77203261,0.00225675,0.,-0.03741007,-0.11913142,0.,0.10428092,-0
 .30266165,0.,0.06591152,-0.01991647,0.,0.01975823,-0.02513770,0.,0.078
 40740,0.00115069,0.,-0.00095757,-0.01438268,0.,-0.03472173,-0.24701262
 ,0.,-0.10806743,0.72483510,0.,0.02708989,0.,0.,-0.00471506,0.,0.,-0.06
 139800,0.,0.,-0.00362935,0.,0.,0.01467273,0.,0.,0.00685380,0.,0.,0.000
 99511,0.,0.,-0.07477736,0.,0.,0.09490823,0.05126286,0.,-0.12822851,0.1
 0547100,0.,-0.50786286,0.06844251,0.,-0.16048973,-0.02167527,0.,0.0182
 8010,0.00026615,0.,-0.08712599,-0.00338066,0.,-0.00649110,0.00457388,0
 .,0.00989561,-0.11775922,0.,-0.24953212,-0.08720126,0.,1.11155460\\-0.
 00022933,0.,-0.00012577,0.00001071,0.,-0.00000083,-0.00013464,0.,0.000
 22902,-0.00001237,0.,-0.00003764,0.00022385,0.,0.00006993,-0.00006585,
 0.,0.00002769,0.00004355,0.,-0.00002307,0.00002171,0.,0.00016241,0.000
 14238,0.,-0.00030174\\\@

 GOD GAVE US TWO ENDS... ONE TO SIT ON...
 AND THE OTHER TO THINK WITH...
 YOUR SUCCESS DEPENDS UPON WHICH END YOU
 USE THE MOST...

 IT'S A CASE OF HEADS YOU WIN TAILS YOU LOSE.
          SOURCE UNKNOWN(IT'S JUST AS WELL.)
 Job cpu time:  0 days  0 hours 11 minutes 33.7 seconds.
 File lengths (MBytes):  RWF=   21 Int=    0 D2E=    0 Chk=    3 Scr=    1
 Normal termination of Gaussian 98.
