 Gaussian 98, Revision A.6,
 Gaussian 98:  IBM-RS6000-G98RevA.6 19-Oct-1998

 --------------------
 #HF/cc-pVDZ opt freq
 --------------------

 --------------------------------
 1H imidazole C3H4N2 casno=288324
 --------------------------------
 Symbolic Z-matrix:
 Charge =  0 Multiplicity = 1

 SCF Done:  E(RHF) =  -224.780942747     A.U. after   13 cycles
 SCF Done:  E(RHF) =  -224.830121466     A.U. after   13 cycles
 SCF Done:  E(RHF) =  -224.835974430     A.U. after   13 cycles
 SCF Done:  E(RHF) =  -224.836265945     A.U. after   11 cycles
 SCF Done:  E(RHF) =  -224.836350794     A.U. after   11 cycles
 SCF Done:  E(RHF) =  -224.836355141     A.U. after    9 cycles
 Optimization completed.
    -- Stationary point found.
 Normal termination of Gaussian 98.

 ----------------------------------------------
 #N Geom=AllCheck Guess=TCheck RHF/CC-pVDZ Freq
 ----------------------------------------------

 1H imidazole C3H4N2 casno=288324
 --------------------------------
 Redundant internal coordinates taken from checkpointfile:
 /wrk/rdj3/Gau-38384.chk
 Charge =  0 Multiplicity = 1

                         Standard orientation:
 ---------------------------------------------------------------------
 Center     Atomic     Atomic              Coordinates (Angstroms)
 Number     Number      Type              X           Y           Z
 ---------------------------------------------------------------------
    1          7             0       -0.742091   -0.968290    0.000000
    2          1             0       -0.014767    2.092402    0.000000
    3          6             0        1.110988    0.290544    0.000000
    4          1             0        2.111657    0.684807    0.000000
    5          6             0        0.629892   -0.976194    0.000000
    6          1             0        1.188606   -1.897130    0.000000
    7          1             0       -2.084659    0.658695    0.000000
    8          6             0       -1.075247    0.279513    0.000000
    9          7             0        0.000000    1.096582    0.000000
 ---------------------------------------------------------------------

 SCF Done:  E(RHF) =  -224.836355141     A.U. after    1 cycles

  The electronic state is 1-A'.
 Alpha  occ. eigenvalues --  -15.61865 -15.53672 -11.29195 -11.25926 -11.23889
 Alpha  occ. eigenvalues --   -1.34733  -1.16825  -1.00914  -0.82653  -0.79788
 Alpha  occ. eigenvalues --   -0.75733  -0.60723  -0.59866  -0.59742  -0.56510
 Alpha  occ. eigenvalues --   -0.42986  -0.39485  -0.31981
 Alpha virt. eigenvalues --    0.17333   0.18876   0.22259   0.22981   0.24182
 Alpha virt. eigenvalues --    0.24605   0.37570   0.39854   0.44726   0.46384
 Alpha virt. eigenvalues --    0.59777   0.62874   0.67662   0.67891   0.71727

  Exact polarizability:  45.605  -1.066  44.699   0.000   0.000  19.630
 Approx polarizability:  42.693   0.316  44.881   0.000   0.000  21.931

                     1                      2                      3
                    A"                     A"                     A"
 Frequencies --   523.8608               691.5355               730.6656
 Red. masses --     1.4351                 2.2328                 2.8639
 Frc consts  --     0.2320                 0.6291                 0.9008
 IR Inten    --   116.7207                 5.0397                12.5485
 Raman Activ --     1.5830                 0.7067                 0.3974

                     4                      5                      6
                    A"                     A"                     A'
 Frequencies --   830.3577               962.4715               980.6665
 Red. masses --     1.2454                 1.4115                 5.2609
 Frc consts  --     0.5059                 0.7704                 2.9809
 IR Inten    --    46.9089                18.4526                 7.6652
 Raman Activ --     0.9958                 0.1620                 1.8793

                     7                      8                      9
                    A"                     A'                     A'
 Frequencies --   991.7668              1016.1975              1145.7027
 Red. masses --     1.3787                 4.3459                 1.6370
 Frc consts  --     0.7990                 2.6441                 1.2661
 IR Inten    --     0.0072                 2.0917                58.2755
 Raman Activ --     1.2454                 1.6952                 2.1835

                    10                     11                     12
                    A'                     A'                     A'
 Frequencies --  1171.9648              1226.5370              1243.1307
 Red. masses --     1.5228                 1.8024                 2.8008
 Frc consts  --     1.2323                 1.5976                 2.5501
 IR Inten    --    13.4107                 3.5999                 6.6902
 Raman Activ --     1.9709                 7.6558                23.1982

                    13                     14                     15
                    A'                     A'                     A'
 Frequencies --  1387.3414              1490.1438              1578.4521
 Red. masses --     1.3502                 3.4392                 2.7031
 Frc consts  --     1.5312                 4.4995                 3.9680
 IR Inten    --     0.5248                 8.4529                19.4387
 Raman Activ --     6.8494                26.3065                13.3167

                    16                     17                     18
                    A'                     A'                     A'
 Frequencies --  1652.4141              1729.5991              3412.2700
 Red. masses --     3.3337                 3.8426                 1.0959
 Frc consts  --     5.3631                 6.7728                 7.5184
 IR Inten    --    23.9391                23.9557                 9.7930
 Raman Activ --    20.0552                 1.9259                41.9511

                    19                     20                     21
                    A'                     A'                     A'
 Frequencies --  3414.1728              3446.6713              3906.2270
 Red. masses --     1.0969                 1.1086                 1.0836
 Frc consts  --     7.5331                 7.7592                 9.7413
 IR Inten    --     0.1692                 2.4135               100.5247
 Raman Activ --    99.9965               105.1353                81.4738

 - Thermochemistry -
 -------------------
 Temperature   298.150 Kelvin.  Pressure   1.00000 Atm.
 Atom  1 has atomic number  7 and mass  14.00307

 Molecular mass:    68.03745 amu.
 Principal axes and moments of inertia in atomic units:
                           1         2         3
     EIGENVALUES --   182.27789 188.05555 370.33344
           X            0.49220   0.87048   0.00000
           Y            0.87048  -0.49220   0.00000
           Z            0.00000   0.00000   1.00000
 THIS MOLECULE IS AN ASYMMETRIC TOP.
 ROTATIONAL SYMMETRY NUMBER  1.
 ROTATIONAL TEMPERATURES (KELVIN)      0.47517     0.46057     0.23388
 ROTATIONAL CONSTANTS (GHZ)            9.90104     9.59685     4.87329
 Zero-point vibrational energy     200566.8 (Joules/Mol)
                                   47.93662 (Kcal/Mol)
 WARNING-- EXPLICIT CONSIDERATION OF   1 DEGREES OF FREEDOM AS
           VIBRATIONS MAY CAUSE SIGNIFICANT ERROR
 VIBRATIONAL TEMPERATURES:    753.71   994.96  1051.26  1194.69  1384.77
          (KELVIN)           1410.95  1426.92  1462.07  1648.40  1686.19
                             1764.70  1788.58  1996.06  2143.97  2271.03
                             2377.44  2488.49  4909.47  4912.20  4958.96
                             5620.16

 Zero-point correction=                           0.076392 (Hartree/Particle)
 Thermal correction to Energy=                    0.079963
 Thermal correction to Enthalpy=                  0.080907
 Thermal correction to Gibbs Free Energy=         0.050208
 Sum of electronic and zero-point Energies=           -224.759963
 Sum of electronic and thermal Energies=              -224.756392
 Sum of electronic and thermal Enthalpies=            -224.755448
 Sum of electronic and thermal Free Energies=         -224.786147

                     E (Thermal)             CV                S
                      KCAL/MOL        CAL/MOL-KELVIN    CAL/MOL-KELVIN
 TOTAL                   50.178             12.098             64.613
 ELECTRONIC               0.000              0.000              0.000
 TRANSLATIONAL            0.889              2.981             38.570
 ROTATIONAL               0.889              2.981             24.055
 VIBRATIONAL             48.400              6.136              1.987
 VIBRATION  1             0.879              1.197              0.601
                       Q            LOG10(Q)             LN(Q)
 TOTAL BOT       0.805717D-23        -23.093818        -53.175480
 TOTAL V=0       0.110602D+13         12.043763         27.731790
 VIB (BOT)       0.905616D-35        -35.043056        -80.689618
 VIB (BOT)  1    0.307033D+00         -0.512814         -1.180799
 VIB (V=0)       0.124315D+01          0.094525          0.217652
 VIB (V=0)  1    0.108674D+01          0.036128          0.083187
 ELECTRONIC      0.100000D+01          0.000000          0.000000
 TRANSLATIONAL   0.220588D+08          7.343582         16.909224
 ROTATIONAL      0.403326D+05          4.605656         10.604915
 ***** Axes restored to original set *****
 -------------------------------------------------------------------
 Center     Atomic                   Forces (Hartrees/Bohr)
 Number     Number              X              Y              Z
 -------------------------------------------------------------------
    1          7           0.000227980    0.000000000    0.000115575
    2          1          -0.000009740    0.000000000    0.000004200
    3          6           0.000144758    0.000000000   -0.000232015
    4          1           0.000020834    0.000000000    0.000045475
    5          6          -0.000250188    0.000000000   -0.000057746
    6          1           0.000075494    0.000000000   -0.000034229
    7          1          -0.000055638    0.000000000    0.000019657
    8          6           0.000003427    0.000000000   -0.000144940
    9          7          -0.000156927    0.000000000    0.000284024
 -------------------------------------------------------------------
 Cartesian Forces:  Max     0.000284024 RMS     0.000113093

 GradGradGradGradGradGradGradGradGradGradGradGradGradGradGradGradGradGrad
 Berny optimization.
 Internal  Forces:  Max     0.000222375 RMS     0.000061679
 Search for a local minimum.
 Step number   1 out of a maximum of  48
 All quantities printed in internal units (Hartrees-Bohrs-Radians)
 Second derivative matrix not updated -- analytic derivatives used.
     Eigenvalues ---    0.00520   0.01449   0.02665   0.03355   0.06862
     Eigenvalues ---    0.07164   0.11246   0.11961   0.12460   0.13635
     Eigenvalues ---    0.26254   0.27757   0.40173   0.40967   0.41403
     Eigenvalues ---    0.41538   0.47597   0.50055   0.54264   0.56227
     Eigenvalues ---    0.693771000.000001000.000001000.000001000.00000
     Eigenvalues --- 1000.000001000.000001000.000001000.000001000.00000
     Eigenvalues --- 1000.000001000.000001000.000001000.000001000.00000
     Eigenvalues --- 1000.000001000.000001000.00000
 Angle between quadratic step and forces=  24.60 degrees.
 Linear search not attempted -- first point.
 Iteration  1 RMS(Cart)=  0.00013597 RMS(Int)=  0.00000002
 Iteration  2 RMS(Cart)=  0.00000002 RMS(Int)=  0.00000001
 Variable       Old X    -DE/DX   Delta X   Delta X   Delta X     New X
                                 (Linear)    (Quad)   (Total)
    R1        2.59272   0.00019   0.00000   0.00050   0.00050   2.59321
    R2        2.44061  -0.00001   0.00000   0.00004   0.00004   2.44065
    R3        1.88203  -0.00001   0.00000   0.00000   0.00000   1.88203
    R4        2.03247  -0.00004   0.00000  -0.00011  -0.00011   2.03237
    R5        2.56061   0.00001   0.00000   0.00004   0.00004   2.56065
    R6        2.59381  -0.00022   0.00000  -0.00053  -0.00053   2.59328
    R7        2.03555  -0.00008   0.00000  -0.00020  -0.00020   2.03535
    R8        2.03766  -0.00006   0.00000  -0.00014  -0.00014   2.03752
    R9        2.55201  -0.00008   0.00000  -0.00021  -0.00021   2.55180
    A1        1.83747  -0.00011   0.00000  -0.00024  -0.00024   1.83723
    A2        2.30908  -0.00001   0.00000  -0.00025  -0.00025   2.30884
    A3        2.13862   0.00004   0.00000   0.00030   0.00030   2.13892
    A4        1.83548  -0.00003   0.00000  -0.00005  -0.00005   1.83543
    A5        1.92800   0.00000   0.00000  -0.00003  -0.00003   1.92797
    A6        2.12187  -0.00003   0.00000  -0.00030  -0.00030   2.12158
    A7        2.23331   0.00003   0.00000   0.00033   0.00033   2.23364
    A8        2.19104  -0.00002   0.00000  -0.00008  -0.00008   2.19096
    A9        1.95969   0.00001   0.00000   0.00000   0.00000   1.95969
   A10        2.13246   0.00001   0.00000   0.00008   0.00008   2.13253
   A11        2.21327  -0.00007   0.00000  -0.00020  -0.00020   2.21307
   A12        2.20577  -0.00005   0.00000  -0.00012  -0.00012   2.20565
   A13        1.86415   0.00012   0.00000   0.00032   0.00032   1.86447
    D1        0.00000   0.00000   0.00000   0.00000   0.00000   0.00000
    D2        3.14159   0.00000   0.00000   0.00000   0.00000   3.14159
    D3        3.14159   0.00000   0.00000   0.00000   0.00000   3.14159
    D4        0.00000   0.00000   0.00000   0.00000   0.00000   0.00000
    D5        3.14159   0.00000   0.00000   0.00000   0.00000   3.14159
    D6        0.00000   0.00000   0.00000   0.00000   0.00000   0.00000
    D7        0.00000   0.00000   0.00000   0.00000   0.00000   0.00000
    D8        3.14159   0.00000   0.00000   0.00000   0.00000   3.14159
    D9        0.00000   0.00000   0.00000   0.00000   0.00000   0.00000
   D10        3.14159   0.00000   0.00000   0.00000   0.00000   3.14159
   D11        3.14159   0.00000   0.00000   0.00000   0.00000   3.14159
   D12        0.00000   0.00000   0.00000   0.00000   0.00000   0.00000
   D13        3.14159   0.00000   0.00000   0.00000   0.00000   3.14159
   D14        0.00000   0.00000   0.00000   0.00000   0.00000   0.00000
   D15        0.00000   0.00000   0.00000   0.00000   0.00000   0.00000
   D16        3.14159   0.00000   0.00000   0.00000   0.00000   3.14159
         Item               Value     Threshold  Converged?
 Maximum Force            0.000222     0.000450     YES
 RMS     Force            0.000062     0.000300     YES
 Maximum Displacement     0.000346     0.001800     YES
 RMS     Displacement     0.000136     0.001200     YES
 Predicted change in Energy=-1.915165D-07
 Optimization completed.
    -- Stationary point found.
                         ----------------------------
                         !   Optimized Parameters   !
                         ! (Angstroms and Degrees)  !
 ------------------------                            -------------------------
 ! Name  Definition              Value          Derivative Info.             !
 -----------------------------------------------------------------------------
 ! R1    R(1,5)                  1.372          -DE/DX =    0.0002           !
 ! R2    R(1,8)                  1.2915         -DE/DX =    0.               !
 ! R3    R(2,9)                  0.9959         -DE/DX =    0.               !
 ! R4    R(3,4)                  1.0755         -DE/DX =    0.               !
 ! R5    R(3,5)                  1.355          -DE/DX =    0.               !
 ! R6    R(3,9)                  1.3726         -DE/DX =   -0.0002           !
 ! R7    R(5,6)                  1.0772         -DE/DX =   -0.0001           !
 ! R8    R(7,8)                  1.0783         -DE/DX =   -0.0001           !
 ! R9    R(8,9)                  1.3505         -DE/DX =   -0.0001           !
 ! A1    A(5,1,8)              105.279          -DE/DX =   -0.0001           !
 ! A2    A(4,3,5)              132.3008         -DE/DX =    0.               !
 ! A3    A(4,3,9)              122.5341         -DE/DX =    0.               !
 ! A4    A(5,3,9)              105.1651         -DE/DX =    0.               !
 ! A5    A(1,5,3)              110.4663         -DE/DX =    0.               !
 ! A6    A(1,5,6)              121.5744         -DE/DX =    0.               !
 ! A7    A(3,5,6)              127.9593         -DE/DX =    0.               !
 ! A8    A(1,8,7)              125.5374         -DE/DX =    0.               !
 ! A9    A(1,8,9)              112.2819         -DE/DX =    0.               !
 ! A10   A(7,8,9)              122.1807         -DE/DX =    0.               !
 ! A11   A(2,9,3)              126.8111         -DE/DX =   -0.0001           !
 ! A12   A(2,9,8)              126.3812         -DE/DX =   -0.0001           !
 ! A13   A(3,9,8)              106.8077         -DE/DX =    0.0001           !
 ! D1    D(8,1,5,3)              0.             -DE/DX =    0.               !
 ! D2    D(8,1,5,6)            180.             -DE/DX =    0.               !
 ! D3    D(5,1,8,7)            180.             -DE/DX =    0.               !
 ! D4    D(5,1,8,9)              0.             -DE/DX =    0.               !
 ! D5    D(4,3,5,1)            180.             -DE/DX =    0.               !
 ! D6    D(4,3,5,6)              0.             -DE/DX =    0.               !
 ! D7    D(9,3,5,1)              0.             -DE/DX =    0.               !
 ! D8    D(9,3,5,6)            180.             -DE/DX =    0.               !
 ! D9    D(4,3,9,2)              0.             -DE/DX =    0.               !
 ! D10   D(4,3,9,8)            180.             -DE/DX =    0.               !
 ! D11   D(5,3,9,2)            180.             -DE/DX =    0.               !
 ! D12   D(5,3,9,8)              0.             -DE/DX =    0.               !
 ! D13   D(1,8,9,2)            180.             -DE/DX =    0.               !
 ! D14   D(1,8,9,3)              0.             -DE/DX =    0.               !
 ! D15   D(7,8,9,2)              0.             -DE/DX =    0.               !
 ! D16   D(7,8,9,3)            180.             -DE/DX =    0.               !
 -----------------------------------------------------------------------------
 GradGradGradGradGradGradGradGradGradGradGradGradGradGradGradGradGradGrad

 1\1\GINC-QUANTUM\Freq\RHF\CC-pVDZ\C3H4N2\RDJ3\20-Mar-2000\0\\#N GEOM=A
 LLCHECK GUESS=TCHECK RHF/CC-PVDZ FREQ\\1H imidazole C3H4N2 casno=28832
 4\\0,1\N,0.4994046668,0.,1.1130494599\H,0.4957788107,0.,-2.0328719616\
 C,-1.0143371865,0.,-0.538358737\H,-1.8974518901,0.,-1.1522733151\C,-0.
 837591033,0.,0.8050836834\H,-1.5932001656,0.,1.5727689027\H,2.18028247
 56,0.,-0.1613983341\C,1.1107102658,0.,-0.0246285603\N,0.2522951177,0.,
 -1.067164261\\Version=IBM-RS6000-G98RevA.6\State=1-A'\HF=-224.8363551\
 RMSD=7.960e-10\RMSF=1.131e-04\Dipole=-0.0668904,0.,-1.4861583\DipoleDe
 riv=-0.5058932,0.,-0.0460692,0.,-0.361949,0.,0.0741953,0.,-0.6453393,0
 .1858977,0.,-0.0075676,0.,0.3411864,0.,-0.0147847,0.,0.2720697,-0.0026
 277,0.,-0.3272156,0.,-0.1306116,0.,-0.0278178,0.,0.216876,0.0180716,0.
 ,-0.0428709,0.,0.1887521,0.,-0.058711,0.,0.0498358,0.2665112,0.,-0.000
 8828,0.,-0.1195566,0.,-0.1223678,0.,0.1416843,-0.0094255,0.,0.0684874,
 0.,0.1551166,0.,0.0817759,0.,0.0280736,-0.0309393,0.,0.0337645,0.,0.14
 93264,0.,0.0310745,0.,0.0750417,0.2254871,0.,0.0921436,0.,0.0924585,0.
 ,-0.0423596,0.,0.6342993,-0.1470819,0.,0.2302106,0.,-0.3147229,0.,0.07
 89952,0.,-0.7725411\Polar=46.0349552,0.,19.629659,-0.7505984,0.,44.269
 5801\PolarDeriv=-10.021147,0.,-0.4580079,-1.1279784,0.,5.9086141,0.,0.
 4892159,0.,0.,2.7272043,0.,6.3567024,0.,0.5691456,1.9360274,0.,6.21240
 01,0.7598058,0.,0.0150261,-1.6663516,0.,1.4872522,0.,0.2972042,0.,0.,-
 1.0567388,0.,-1.0188128,0.,-0.138434,1.8069024,0.,-8.8167715,0.9689247
 ,0.,0.0999222,-1.2496818,0.,-1.4787452,0.,-3.1632284,0.,0.,-4.2277886,
 0.,-5.3666886,0.,-1.5973605,-1.9575213,0.,-4.2376303,-6.7042081,0.,-0.
 2499543,-3.1561635,0.,-2.1142219,0.,-0.8000185,0.,0.,-0.1110206,0.,-3.
 0165361,0.,0.0543359,-2.8330344,0.,-3.2232589,8.0701744,0.,0.1234189,3
 .0728414,0.,-1.7128295,0.,-0.712097,0.,0.,4.2437387,0.,5.9130407,0.,1.
 1922695,3.5794018,0.,3.0439533,-4.6067068,0.,-0.2761725,3.5331334,0.,-
 2.9446743,0.,-1.1721712,0.,0.,0.5050836,0.,2.852675,0.,0.1086587,-3.13
 40129,0.,5.1949585,10.0457791,0.,0.3428235,-0.6771576,0.,0.8921186,0.,
 0.9440063,0.,0.,-0.0366239,0.,-0.9748855,0.,-0.0523959,1.6020857,0.,-0
 .3944897,4.8263773,0.,1.1168983,-0.1580949,0.,0.0606065,0.,3.8372695,0
 .,0.,-0.9081904,0.,-5.4080033,0.,-0.4362045,-0.542224,0.,2.2370337,-3.
 3389993,0.,-0.7139542,1.4294531,0.,-0.0981206,0.,0.2798193,0.,0.,-1.13
 56644,0.,0.6625081,0.,0.2999853,-0.4576247,0.,-0.0161951\HyperPolar=39
 .3410431,0.,0.6282635,0.,-16.8372288,0.,-3.9334706,-34.7579885,0.,-27.
 1028498\PG=CS [SG(C3H4N2)]\NImag=0\\0.56609180,0.,0.12314273,-0.073757
 86,0.,0.71374314,-0.00274786,0.,-0.01000434,0.09619068,0.,0.00770396,0
 .,0.,0.01159767,-0.00451193,0.,-0.00224806,-0.11215331,0.,0.51317675,-
 0.03484000,0.,-0.01158904,0.01164378,0.,-0.00331852,0.83319439,0.,0.02
 022361,0.,0.,-0.00884530,0.,0.,0.13853269,-0.10517688,0.,-0.02117753,0
 .03040976,0.,-0.00022574,0.18823260,0.,0.87066603,0.00268660,0.,0.0005
 3392,0.00027517,0.,-0.00000946,-0.28529784,0.,-0.15124457,0.29939211,0
 .,0.00850806,0.,0.,-0.00129913,0.,0.,-0.02958963,0.,0.,0.02361705,-0.0
 0445038,0.,-0.00623001,-0.00119122,0.,0.00023342,-0.16180112,0.,-0.184
 64909,0.16682953,0.,0.17347277,-0.28911240,0.,-0.05273301,-0.01019152,
 0.,0.00044338,-0.12241715,0.,-0.02630432,0.00577396,0.,-0.02499926,0.7
 5117010,0.,-0.08416726,0.,0.,0.00219845,0.,0.,-0.08238604,0.,0.,0.0006
 8210,0.,0.,0.16515323,-0.05093498,0.,-0.13985676,0.00379376,0.,0.00187
 505,-0.05061379,0.,-0.47435597,0.00159008,0.,0.00400204,-0.16521361,0.
 ,0.93041883,-0.01852663,0.,0.02475990,0.00086196,0.,-0.00004028,0.0102
 0445,0.,-0.00601194,-0.00024906,0.,0.00087585,-0.21740864,0.,0.1590963
 9,0.23140786,0.,-0.00425451,0.,0.,0.00248834,0.,0.,0.00151307,0.,0.,-0
 .00317670,0.,0.,-0.03800633,0.,0.,0.02846062,-0.00786902,0.,0.01409790
 ,0.00141296,0.,0.00026509,0.02392482,0.,-0.00678474,-0.00067130,0.,0.0
 0001816,0.16283085,0.,-0.24203910,-0.17418942,0.,0.23994542,-0.0090700
 9,0.,0.00294868,-0.00054961,0.,-0.00043570,0.00153488,0.,-0.00430305,-
 0.00043016,0.,0.00046100,0.00162422,0.,0.00337273,-0.00038181,0.,-0.00
 022019,0.40377991,0.,-0.00330593,0.,0.,-0.00176216,0.,0.,0.00325949,0.
 ,0.,0.00195314,0.,0.,0.00893599,0.,0.,0.00094664,0.,0.,0.02848937,0.03
 383120,0.,0.00268897,0.00066360,0.,0.00049838,-0.00075016,0.,-0.006809
 80,-0.00121589,0.,0.00108494,0.00310975,0.,-0.00493631,0.00156080,0.,0
 .00071290,-0.04163937,0.,0.07124767,-0.21431544,0.,0.15740967,0.022605
 20,0.,0.01608499,-0.10563659,0.,0.00443864,-0.00342756,0.,0.00473977,-
 0.09371591,0.,0.01937228,-0.00718029,0.,-0.00405071,-0.38230029,0.,0.0
 3811921,1.03122804,0.,-0.09521121,0.,0.,-0.00970772,0.,0.,0.01823839,0
 .,0.,0.00303998,0.,0.,0.01181059,0.,0.,0.00555578,0.,0.,-0.03941933,0.
 ,0.,0.18015910,0.16040387,0.,-0.43296875,-0.01780459,0.,-0.01023640,-0
 .05678439,0.,-0.01859627,0.00609980,0.,-0.00539472,0.10573743,0.,0.013
 06069,-0.00316510,0.,0.00032917,0.03411387,0.,-0.07418971,-0.11321433,
 0.,0.78173164,-0.00016596,0.,-0.03756792,-0.11808781,0.,0.10394083,-0.
 30838592,0.,0.06995977,-0.01872322,0.,0.01953584,-0.02572267,0.,0.0795
 3714,0.00127216,0.,-0.00116799,-0.01420706,0.,-0.03367914,-0.24725716,
 0.,-0.11538657,0.73127764,0.,0.02736057,0.,0.,-0.00237410,0.,0.,-0.060
 94628,0.,0.,-0.00373487,0.,0.,0.01577928,0.,0.,0.00647310,0.,0.,0.0009
 0279,0.,0.,-0.07446556,0.,0.,0.09100507,0.05246598,0.,-0.12804890,0.10
 487338,0.,-0.50333849,0.07269961,0.,-0.15806688,-0.02191211,0.,0.01746
 249,-0.00287120,0.,-0.08816847,-0.00288619,0.,-0.00654479,0.00570202,0
 .,0.00970296,-0.12289953,0.,-0.25373565,-0.08517196,0.,1.11073774\\-0.
 00022798,0.,-0.00011558,0.00000974,0.,-0.00000420,-0.00014476,0.,0.000
 23201,-0.00002083,0.,-0.00004547,0.00025019,0.,0.00005775,-0.00007549,
 0.,0.00003423,0.00005564,0.,-0.00001966,-0.00000343,0.,0.00014494,0.00
 015693,0.,-0.00028402\\\@

 ADAM SMITH SAID, "THE REAL PRICE OF ANYTHING IS THE TOIL AND TROUBLE
 OF ACQUIRING IT."  BUT IN ALL UNDERTAKINGS WITH NATURE WE SHOULD FIRST
 READ CAREFULLY THE SMALL PRINT IN THE CONTRACT. THIS MIGHT DISCLOSE
 THAT THE REAL PRICE IS TO BE PAID BY THOSE WHO INHERIT THE DEPLETION
 AND DESPOILATION THAT FOLLOWS.
                               -- E. R. HARRISON IN "COSMOLOGY" (1980)
 Job cpu time:  0 days  0 hours  9 minutes  7.2 seconds.
 File lengths (MBytes):  RWF=   14 Int=    0 D2E=    0 Chk=    3 Scr=    1
 Normal termination of Gaussian 98.
