 Gaussian 98, Revision A.6,
 Gaussian 98:  IBM-RS6000-G98RevA.6 19-Oct-1998

 --------------------
 #MP2/6-311+G(3df,2p)
 --------------------

 --------------------------------
 1H imidazole C3H4N2 casno=288324
 --------------------------------
 Symbolic Z-matrix:
 Charge =  0 Multiplicity = 1

                         Standard orientation:
 ---------------------------------------------------------------------
 Center     Atomic     Atomic              Coordinates (Angstroms)
 Number     Number      Type              X           Y           Z
 ---------------------------------------------------------------------
    1          7             0       -0.674969   -0.941702    0.000000
    2          1             0       -0.005288    1.979393    0.000000
    3          6             0        1.025744    0.302019    0.000000
    4          1             0        1.967693    0.604544    0.000000
    5          6             0        0.600174   -0.946822    0.000000
    6          1             0        1.173884   -1.755622    0.000000
    7          1             0       -1.969692    0.607211    0.000000
    8          6             0       -1.032886    0.288794    0.000000
    9          7             0        0.000000    1.041778    0.000000
 ---------------------------------------------------------------------

 SCF Done:  E(RHF) =  -224.849133938     A.U. after   13 cycles
 E2 =    -0.8670402229D+00 EUMP2 =    -0.22571617416055D+03

  The electronic state is 1-A'.
 Alpha  occ. eigenvalues --  -15.61309 -15.51857 -11.25872 -11.21978 -11.20231
 Alpha  occ. eigenvalues --   -1.41499  -1.20834  -1.03691  -0.86988  -0.83329
 Alpha  occ. eigenvalues --   -0.80326  -0.64494  -0.64438  -0.61705  -0.59816
 Alpha  occ. eigenvalues --   -0.42550  -0.41845  -0.31824
 Alpha virt. eigenvalues --    0.05211   0.07310   0.08578   0.09544   0.10418
 Alpha virt. eigenvalues --    0.11182   0.13449   0.13633   0.14885   0.14921
 Alpha virt. eigenvalues --    0.18240   0.19535   0.20063   0.20096   0.23702

 Normal termination of Gaussian 98.
