 Gaussian 98, Revision A.6,
 Gaussian 98:  IBM-RS6000-G98RevA.6 19-Oct-1998

 ------------
 #MP2/cc-pVDZ
 ------------

 --------------------------------
 1H imidazole C3H4N2 casno=288324
 --------------------------------
 Symbolic Z-matrix:
 Charge =  0 Multiplicity = 1

                         Standard orientation:
 ---------------------------------------------------------------------
 Center     Atomic     Atomic              Coordinates (Angstroms)
 Number     Number      Type              X           Y           Z
 ---------------------------------------------------------------------
    1          7             0       -0.674969   -0.941702    0.000000
    2          1             0       -0.005288    1.979393    0.000000
    3          6             0        1.025744    0.302019    0.000000
    4          1             0        1.967693    0.604544    0.000000
    5          6             0        0.600174   -0.946822    0.000000
    6          1             0        1.173884   -1.755622    0.000000
    7          1             0       -1.969692    0.607211    0.000000
    8          6             0       -1.032886    0.288794    0.000000
    9          7             0        0.000000    1.041778    0.000000
 ---------------------------------------------------------------------

 SCF Done:  E(RHF) =  -224.780942747     A.U. after   13 cycles
 E2 =    -0.6997865430D+00 EUMP2 =    -0.22548072928987D+03

  The electronic state is 1-A'.
 Alpha  occ. eigenvalues --  -15.61521 -15.51556 -11.26099 -11.22395 -11.20485
 Alpha  occ. eigenvalues --   -1.41139  -1.20351  -1.03301  -0.86477  -0.82780
 Alpha  occ. eigenvalues --   -0.79704  -0.63830  -0.63748  -0.61042  -0.59035
 Alpha  occ. eigenvalues --   -0.41765  -0.40972  -0.31237
 Alpha virt. eigenvalues --    0.17531   0.21072   0.22760   0.24111   0.25963
 Alpha virt. eigenvalues --    0.26557   0.39067   0.41033   0.45393   0.48141
 Alpha virt. eigenvalues --    0.62301   0.66555   0.66681   0.71486   0.72199

 Normal termination of Gaussian 98.
