 Gaussian 98, Revision A.6,
 Gaussian 98:  IBM-RS6000-G98RevA.6 19-Oct-1998

 --------------------------
 #MPW1PW91/cc-pVDZ opt freq
 --------------------------

 --------------------------------
 1H imidazole C3H4N2 casno=288324
 --------------------------------
 Symbolic Z-matrix:
 Charge =  0 Multiplicity = 1

 SCF Done:  E(RmPW+HF-PW91) =  -226.116052796     A.U. after   14 cycles
 SCF Done:  E(RmPW+HF-PW91) =  -226.171210873     A.U. after   13 cycles
 SCF Done:  E(RmPW+HF-PW91) =  -226.180054313     A.U. after   13 cycles
 SCF Done:  E(RmPW+HF-PW91) =  -226.180295140     A.U. after   10 cycles
 SCF Done:  E(RmPW+HF-PW91) =  -226.180364357     A.U. after    9 cycles
 SCF Done:  E(RmPW+HF-PW91) =  -226.180369422     A.U. after    9 cycles
 Optimization completed.
    -- Stationary point found.
 Normal termination of Gaussian 98.

 ----------------------------------------------------
 #N Geom=AllCheck Guess=TCheck RmPW1PW91/CC-pVDZ Freq
 ----------------------------------------------------

 1H imidazole C3H4N2 casno=288324
 --------------------------------
 Redundant internal coordinates taken from checkpointfile:
 /wrk/rdj3/Gau-17440.chk
 Charge =  0 Multiplicity = 1

                         Standard orientation:
 ---------------------------------------------------------------------
 Center     Atomic     Atomic              Coordinates (Angstroms)
 Number     Number      Type              X           Y           Z
 ---------------------------------------------------------------------
    1          7             0       -0.740216   -0.985413    0.000000
    2          1             0       -0.011658    2.110883    0.000000
    3          6             0        1.116337    0.302132    0.000000
    4          1             0        2.120899    0.710114    0.000000
    5          6             0        0.631232   -0.981817    0.000000
    6          1             0        1.200503   -1.907332    0.000000
    7          1             0       -2.102386    0.663736    0.000000
    8          6             0       -1.085210    0.281077    0.000000
    9          7             0        0.000000    1.101734    0.000000
 ---------------------------------------------------------------------

 SCF Done:  E(RmPW+HF-PW91) =  -226.180369422     A.U. after    1 cycles

  The electronic state is 1-A'.
 Alpha  occ. eigenvalues --  -14.46688 -14.38169 -10.29510 -10.27258 -10.25322
 Alpha  occ. eigenvalues --   -1.04490  -0.89573  -0.76431  -0.63350  -0.60651
 Alpha  occ. eigenvalues --   -0.57586  -0.45185  -0.44806  -0.44686  -0.41440
 Alpha  occ. eigenvalues --   -0.29347  -0.27888  -0.23922
 Alpha virt. eigenvalues --    0.03543   0.05846   0.07721   0.11367   0.11897
 Alpha virt. eigenvalues --    0.13868   0.22254   0.23920   0.28808   0.31942
 Alpha virt. eigenvalues --    0.40283   0.43154   0.48121   0.48872   0.50754

  Exact polarizability:  49.331  -1.621  46.549   0.004   0.000  20.013
 Approx polarizability:  74.164   1.039  75.555   0.000   0.000  29.207

                     1                      2                      3
                    A"                     A"                     A"
 Frequencies --   534.9027               654.0292               688.9393
 Red. masses --     1.5559                 2.2087                 2.8454
 Frc consts  --     0.2623                 0.5566                 0.7957
 IR Inten    --    85.1394                12.4405                 2.6796
 Raman Activ --     0.0000                 0.0000                 0.0000

                     4                      5                      6
                    A"                     A"                     A"
 Frequencies --   737.7422               822.8104               877.1777
 Red. masses --     1.2349                 1.3686                 1.3469
 Frc consts  --     0.3960                 0.5459                 0.6106
 IR Inten    --    31.2891                31.7788                 3.3865
 Raman Activ --     0.0000                 0.0000                 0.0000

                     7                      8                      9
                    A'                     A'                     A'
 Frequencies --   906.3914               945.4110              1085.0416
 Red. masses --     5.0556                 4.2440                 1.4786
 Frc consts  --     2.4471                 2.2349                 1.0257
 IR Inten    --     8.2440                 2.1863                28.1954
 Raman Activ --     0.0000                 0.0000                 0.0000

                    10                     11                     12
                    A'                     A'                     A'
 Frequencies --  1104.6470              1151.8100              1203.5385
 Red. masses --     1.4043                 1.3366                 5.9313
 Frc consts  --     1.0096                 1.0448                 5.0620
 IR Inten    --    28.6146                 2.8081                 3.8985
 Raman Activ --     0.0000                 0.0000                 0.0000

                    13                     14                     15
                    A'                     A'                     A'
 Frequencies --  1277.9629              1397.6807              1472.7406
 Red. masses --     1.3574                 3.8696                 3.4875
 Frc consts  --     1.3061                 4.4538                 4.4568
 IR Inten    --     0.9551                 6.9037                 9.4434
 Raman Activ --     0.0000                 0.0000                 0.0000

                    16                     17                     18
                    A'                     A'                     A'
 Frequencies --  1532.5839              1582.3840              3274.2353
 Red. masses --     3.6982                 3.7665                 1.0930
 Frc consts  --     5.1179                 5.5567                 6.9036
 IR Inten    --    17.2710                12.2464                 4.7139
 Raman Activ --     0.0000                 0.0000                 0.0000

                    19                     20                     21
                    A'                     A'                     A'
 Frequencies --  3279.8150              3311.4958              3689.8850
 Red. masses --     1.0980                 1.1057                 1.0827
 Frc consts  --     6.9594                 7.1437                 8.6853
 IR Inten    --     0.7516                 0.7174                63.3068
 Raman Activ --     0.0000                 0.0000                 0.0000

 - Thermochemistry -
 -------------------
 Temperature   298.150 Kelvin.  Pressure   1.00000 Atm.
 Atom  1 has atomic number  7 and mass  14.00307

 Molecular mass:    68.03745 amu.
 Principal axes and moments of inertia in atomic units:
                           1         2         3
     EIGENVALUES --   183.87877 191.93711 375.81589
           X            0.45582   0.89007   0.00000
           Y            0.89007  -0.45582   0.00000
           Z            0.00000   0.00000   1.00000
 THIS MOLECULE IS AN ASYMMETRIC TOP.
 ROTATIONAL SYMMETRY NUMBER  1.
 ROTATIONAL TEMPERATURES (KELVIN)      0.47104     0.45126     0.23047
 ROTATIONAL CONSTANTS (GHZ)            9.81484     9.40277     4.80220
 Zero-point vibrational energy     188598.6 (Joules/Mol)
                                   45.07615 (Kcal/Mol)
 WARNING-- EXPLICIT CONSIDERATION OF   1 DEGREES OF FREEDOM AS
           VIBRATIONS MAY CAUSE SIGNIFICANT ERROR
 VIBRATIONAL TEMPERATURES:    769.60   941.00   991.22  1061.44  1183.83
          (KELVIN)           1262.06  1304.09  1360.23  1561.12  1589.33
                             1657.19  1731.61  1838.69  2010.94  2118.93
                             2205.03  2276.68  4710.87  4718.89  4764.48
                             5308.89

 Zero-point correction=                           0.071833 (Hartree/Particle)
 Thermal correction to Energy=                    0.075564
 Thermal correction to Enthalpy=                  0.076508
 Thermal correction to Gibbs Free Energy=         0.045582
 Sum of electronic and zero-point Energies=           -226.108536
 Sum of electronic and thermal Energies=              -226.104806
 Sum of electronic and thermal Enthalpies=            -226.103862
 Sum of electronic and thermal Free Energies=         -226.134787

                     E (Thermal)             CV                S
                      KCAL/MOL        CAL/MOL-KELVIN    CAL/MOL-KELVIN
 TOTAL                   47.417             13.223             65.088
 ELECTRONIC               0.000              0.000              0.000
 TRANSLATIONAL            0.889              2.981             38.570
 ROTATIONAL               0.889              2.981             24.099
 VIBRATIONAL             45.639              7.261              2.419
 VIBRATION  1             0.890              1.173              0.576
                       Q            LOG10(Q)             LN(Q)
 TOTAL BOT       0.108089D-20        -20.966220        -48.276505
 TOTAL V=0       0.118751D+13         12.074638         27.802880
 VIB (BOT)       0.118855D-32        -32.924984        -75.812578
 VIB (BOT)  1    0.297622D+00         -0.526335         -1.211932
 VIB (V=0)       0.130579D+01          0.115873          0.266807
 VIB (V=0)  1    0.108188D+01          0.034177          0.078696
 ELECTRONIC      0.100000D+01          0.000000          0.000000
 TRANSLATIONAL   0.220588D+08          7.343582         16.909224
 ROTATIONAL      0.412270D+05          4.615182         10.626850
 ***** Axes restored to original set *****
 -------------------------------------------------------------------
 Center     Atomic                   Forces (Hartrees/Bohr)
 Number     Number              X              Y              Z
 -------------------------------------------------------------------
    1          7           0.000186659    0.000000000    0.000143629
    2          1          -0.000021946    0.000000000    0.000015764
    3          6           0.000154667    0.000000000   -0.000163375
    4          1           0.000007135    0.000000000    0.000036114
    5          6          -0.000305895    0.000000000    0.000026092
    6          1           0.000054539    0.000000000   -0.000006833
    7          1          -0.000015055    0.000000000    0.000009380
    8          6          -0.000084047    0.000000000   -0.000218655
    9          7           0.000023942    0.000000000    0.000157884
 -------------------------------------------------------------------
 Cartesian Forces:  Max     0.000305895 RMS     0.000102944

 GradGradGradGradGradGradGradGradGradGradGradGradGradGradGradGradGradGrad
 Berny optimization.
 Internal  Forces:  Max     0.000180070 RMS     0.000051626
 Search for a local minimum.
 Step number   1 out of a maximum of  48
 All quantities printed in internal units (Hartrees-Bohrs-Radians)
 Second derivative matrix not updated -- analytic derivatives used.
     Eigenvalues ---    0.00552   0.01131   0.02060   0.02797   0.06063
     Eigenvalues ---    0.06300   0.09650   0.10286   0.10823   0.11705
     Eigenvalues ---    0.23430   0.25146   0.36460   0.37762   0.38156
     Eigenvalues ---    0.38408   0.42319   0.46451   0.48597   0.49285
     Eigenvalues ---    0.601981000.000001000.000001000.000001000.00000
     Eigenvalues --- 1000.000001000.000001000.000001000.000001000.00000
     Eigenvalues --- 1000.000001000.000001000.000001000.000001000.00000
     Eigenvalues --- 1000.000001000.000001000.00000
 Angle between quadratic step and forces=  29.15 degrees.
 Linear search not attempted -- first point.
 Iteration  1 RMS(Cart)=  0.00011834 RMS(Int)=  0.00000002
 Iteration  2 RMS(Cart)=  0.00000002 RMS(Int)=  0.00000000
 Variable       Old X    -DE/DX   Delta X   Delta X   Delta X     New X
                                 (Linear)    (Quad)   (Total)
    R1        2.59167   0.00018   0.00000   0.00056   0.00056   2.59223
    R2        2.48053   0.00008   0.00000   0.00016   0.00016   2.48069
    R3        1.90714  -0.00002   0.00000  -0.00004  -0.00004   1.90710
    R4        2.04893  -0.00003   0.00000  -0.00006  -0.00006   2.04887
    R5        2.59371   0.00005   0.00000   0.00009   0.00009   2.59380
    R6        2.59490  -0.00010   0.00000  -0.00030  -0.00030   2.59460
    R7        2.05333  -0.00004   0.00000  -0.00014  -0.00014   2.05319
    R8        2.05370  -0.00002   0.00000  -0.00004  -0.00004   2.05367
    R9        2.57111  -0.00014   0.00000  -0.00038  -0.00038   2.57073
    A1        1.83412  -0.00007   0.00000  -0.00020  -0.00020   1.83393
    A2        2.31782  -0.00004   0.00000  -0.00036  -0.00036   2.31746
    A3        2.13425   0.00001   0.00000   0.00023   0.00023   2.13448
    A4        1.83112   0.00004   0.00000   0.00013   0.00013   1.83125
    A5        1.93466  -0.00007   0.00000  -0.00021  -0.00021   1.93445
    A6        2.11961   0.00000   0.00000  -0.00029  -0.00029   2.11932
    A7        2.22891   0.00007   0.00000   0.00050   0.00050   2.22941
    A8        2.19657  -0.00003   0.00000  -0.00020  -0.00020   2.19637
    A9        1.95232   0.00004   0.00000   0.00014   0.00014   1.95246
   A10        2.13430  -0.00001   0.00000   0.00005   0.00005   2.13436
   A11        2.20391  -0.00004   0.00000  -0.00023  -0.00023   2.20368
   A12        2.20671  -0.00001   0.00000   0.00010   0.00010   2.20682
   A13        1.87256   0.00006   0.00000   0.00013   0.00013   1.87269
    D1        0.00000   0.00000   0.00000   0.00000   0.00000   0.00000
    D2        3.14159   0.00000   0.00000   0.00000   0.00000   3.14159
    D3        3.14159   0.00000   0.00000   0.00000   0.00000   3.14159
    D4        0.00000   0.00000   0.00000   0.00000   0.00000   0.00000
    D5        3.14159   0.00000   0.00000   0.00000   0.00000   3.14159
    D6        0.00000   0.00000   0.00000   0.00000   0.00000   0.00000
    D7        0.00000   0.00000   0.00000   0.00000   0.00000   0.00000
    D8        3.14159   0.00000   0.00000   0.00000   0.00000   3.14159
    D9        0.00000   0.00000   0.00000   0.00000   0.00000   0.00000
   D10        3.14159   0.00000   0.00000   0.00000   0.00000   3.14159
   D11        3.14159   0.00000   0.00000   0.00000   0.00000   3.14159
   D12        0.00000   0.00000   0.00000   0.00000   0.00000   0.00000
   D13        3.14159   0.00000   0.00000   0.00000   0.00000   3.14159
   D14        0.00000   0.00000   0.00000   0.00000   0.00000   0.00000
   D15        0.00000   0.00000   0.00000   0.00000   0.00000   0.00000
   D16        3.14159   0.00000   0.00000   0.00000   0.00000   3.14159
         Item               Value     Threshold  Converged?
 Maximum Force            0.000180     0.000450     YES
 RMS     Force            0.000052     0.000300     YES
 Maximum Displacement     0.000375     0.001800     YES
 RMS     Displacement     0.000118     0.001200     YES
 Predicted change in Energy=-1.630221D-07
 Optimization completed.
    -- Stationary point found.
                         ----------------------------
                         !   Optimized Parameters   !
                         ! (Angstroms and Degrees)  !
 ------------------------                            -------------------------
 ! Name  Definition              Value          Derivative Info.             !
 -----------------------------------------------------------------------------
 ! R1    R(1,5)                  1.3715         -DE/DX =    0.0002           !
 ! R2    R(1,8)                  1.3126         -DE/DX =    0.0001           !
 ! R3    R(2,9)                  1.0092         -DE/DX =    0.               !
 ! R4    R(3,4)                  1.0842         -DE/DX =    0.               !
 ! R5    R(3,5)                  1.3725         -DE/DX =    0.0001           !
 ! R6    R(3,9)                  1.3732         -DE/DX =   -0.0001           !
 ! R7    R(5,6)                  1.0866         -DE/DX =    0.               !
 ! R8    R(7,8)                  1.0868         -DE/DX =    0.               !
 ! R9    R(8,9)                  1.3606         -DE/DX =   -0.0001           !
 ! A1    A(5,1,8)              105.0875         -DE/DX =   -0.0001           !
 ! A2    A(4,3,5)              132.8012         -DE/DX =    0.               !
 ! A3    A(4,3,9)              122.2834         -DE/DX =    0.               !
 ! A4    A(5,3,9)              104.9153         -DE/DX =    0.               !
 ! A5    A(1,5,3)              110.8479         -DE/DX =   -0.0001           !
 ! A6    A(1,5,6)              121.4448         -DE/DX =    0.               !
 ! A7    A(3,5,6)              127.7073         -DE/DX =    0.0001           !
 ! A8    A(1,8,7)              125.854          -DE/DX =    0.               !
 ! A9    A(1,8,9)              111.8595         -DE/DX =    0.               !
 ! A10   A(7,8,9)              122.2866         -DE/DX =    0.               !
 ! A11   A(2,9,3)              126.2749         -DE/DX =    0.               !
 ! A12   A(2,9,8)              126.4354         -DE/DX =    0.               !
 ! A13   A(3,9,8)              107.2897         -DE/DX =    0.0001           !
 ! D1    D(8,1,5,3)              0.             -DE/DX =    0.               !
 ! D2    D(8,1,5,6)            180.             -DE/DX =    0.               !
 ! D3    D(5,1,8,7)            180.             -DE/DX =    0.               !
 ! D4    D(5,1,8,9)              0.             -DE/DX =    0.               !
 ! D5    D(4,3,5,1)            180.             -DE/DX =    0.               !
 ! D6    D(4,3,5,6)              0.             -DE/DX =    0.               !
 ! D7    D(9,3,5,1)              0.             -DE/DX =    0.               !
 ! D8    D(9,3,5,6)            180.             -DE/DX =    0.               !
 ! D9    D(4,3,9,2)              0.             -DE/DX =    0.               !
 ! D10   D(4,3,9,8)            180.             -DE/DX =    0.               !
 ! D11   D(5,3,9,2)            180.             -DE/DX =    0.               !
 ! D12   D(5,3,9,8)              0.             -DE/DX =    0.               !
 ! D13   D(1,8,9,2)            180.             -DE/DX =    0.               !
 ! D14   D(1,8,9,3)              0.             -DE/DX =    0.               !
 ! D15   D(7,8,9,2)              0.             -DE/DX =    0.               !
 ! D16   D(7,8,9,3)            180.             -DE/DX =    0.               !
 -----------------------------------------------------------------------------
 GradGradGradGradGradGradGradGradGradGradGradGradGradGradGradGradGradGrad

 1\1\GINC-INDIUM\Freq\RmPW1PW91\CC-pVDZ\C3H4N2\RDJ3\04-Jan-2001\0\\#N G
 EOM=ALLCHECK GUESS=TCHECK RMPW1PW91/CC-PVDZ FREQ\\1H imidazole C3H4N2
 casno=288324\\0,1\N,0.4968516826,0.,1.1278727058\H,0.4911643704,0.,-2.
 0529787941\C,-1.0184396538,0.,-0.5479704342\H,-1.9039705981,0.,-1.1736
 147321\C,-0.8378799209,0.,0.812634946\H,-1.6026222064,0.,1.5845270622\
 H,2.1982237213,0.,-0.1684818956\C,1.1206937193,0.,-0.0270472973\N,0.25
 04282954,0.,-1.0728948383\\Version=IBM-RS6000-G98RevA.6\State=1-A'\HF=
 -226.1803694\RMSD=8.351e-10\RMSF=1.029e-04\Dipole=-0.0734225,0.,-1.450
 3349\DipoleDeriv=-0.3743777,-0.0000784,-0.0459771,-0.0003286,-0.297089
 ,0.0000367,-0.0252938,-0.0000006,-0.5752079,0.1761598,0.000007,-0.0107
 17,-0.0001152,0.310424,-0.0000086,-0.0141426,-0.0000021,0.2135807,-0.0
 255631,0.0000647,-0.2521969,-0.0001582,-0.1396539,-0.0001484,-0.037057
 7,0.0001067,0.1637605,0.0305236,0.0000133,-0.0400678,-0.0000817,0.1764
 599,0.000003,-0.0628045,0.0000184,0.042964,0.1757261,-0.0000154,-0.023
 1676,0.000177,-0.1194676,-0.0001199,-0.0668751,-0.0001416,0.1315367,0.
 0011539,0.0000451,0.0581545,0.0000797,0.1408058,0.0001618,0.0764031,-0
 .0000243,0.0368036,-0.0133955,0.0000021,0.0353049,-0.0001085,0.1532468
 ,0.0000175,0.0338369,0.0000032,0.0695231,0.0981345,0.0000018,0.0935145
 ,0.0001243,-0.0059758,0.0000003,0.0139545,-0.0000332,0.5145431,-0.0683
 599,-0.0000402,0.1851522,0.0004113,-0.2187501,0.0000577,0.0819796,0.00
 00735,-0.5975021\Polar=49.905269,0.003985,20.0130539,-0.8380518,0.0007
 947,45.9749278\PG=CS [SG(C3H4N2)]\NImag=0\\0.51942611,-0.00000634,0.10
 600072,-0.05987557,-0.00000691,0.59564148,-0.00288802,0.00000097,-0.00
 816425,0.08143129,0.00000340,0.00702389,0.00001077,0.00000051,0.011814
 06,-0.00315523,-0.00000154,-0.00328139,-0.09943410,-0.00000018,0.45892
 883,-0.03312859,0.00000214,-0.01249059,0.00778165,-0.00000085,-0.00437
 963,0.77019366,0.00000603,0.01777760,0.00001810,-0.00000040,-0.0074580
 0,0.00000333,-0.00000174,0.11255480,-0.08836777,0.00000762,-0.02007753
 ,0.02735761,-0.00000084,-0.00068726,0.15876429,-0.00000435,0.75998864,
 0.00163135,0.00000284,0.00100079,0.00028051,0.00000129,-0.00014366,-0.
 26000643,0.00000224,-0.14357658,0.27337922,-0.00000197,0.00698748,0.00
 000204,0.00000012,-0.00133708,-0.00000013,0.00000037,-0.02150675,0.000
 00210,0.00000065,0.01872901,-0.00424517,0.00000128,-0.00563254,-0.0008
 9018,0.00000090,0.00026468,-0.15416283,0.00000200,-0.16710063,0.157035
 57,0.00000045,0.15920827,-0.28121222,0.00000488,-0.04523295,-0.0086109
 6,-0.00000771,-0.00097464,-0.09835704,-0.00001175,-0.02032217,0.004667
 96,-0.00000081,-0.02133940,0.68750003,0.00000663,-0.07169380,0.0000105
 9,-0.00000082,0.00255288,0.00000199,-0.00000051,-0.06749838,-0.0000056
 2,-0.00000126,-0.00124545,-0.00000026,-0.00000847,0.13623412,-0.054591
 07,-0.00000790,-0.11282354,0.00353135,-0.00000212,0.00054202,-0.039346
 96,-0.00000196,-0.40672122,0.00227104,-0.00000340,0.00382164,-0.151304
 30,0.00000310,0.81469402,-0.01867246,0.00000205,0.02052360,0.00079398,
 -0.00000027,0.00000056,0.00801631,-0.00000152,-0.00619622,-0.00022623,
 0.00000080,0.00066665,-0.19597058,-0.00000123,0.15056944,0.21181265,-0
 .00000483,-0.00522787,-0.00001502,0.00000039,0.00204024,-0.00000216,-0
 .00000038,-0.00016618,0.00000205,-0.00000137,-0.00222573,-0.00000130,0
 .00001119,-0.02947919,0.00000375,0.00000022,0.02340749,-0.00668370,-0.
 00000199,0.01170798,0.00120261,0.00000077,0.00023033,0.02052324,0.0000
 0251,-0.00668252,-0.00047861,-0.00000014,-0.00003332,0.15251863,0.0000
 0196,-0.21916333,-0.16217503,-0.00000181,0.21809378,-0.00832253,0.0000
 0208,0.00304996,-0.00050687,0.00000266,-0.00027033,0.00119684,0.000005
 87,-0.00336530,-0.00028986,0.00000040,0.00039787,0.00118477,-0.0000005
 9,0.00257268,-0.00028570,-0.00000247,-0.00021584,0.37274505,-0.0000014
 8,-0.00524193,-0.00000189,0.00000025,-0.00141429,-0.00000034,0.0000002
 3,0.00275329,0.00000159,0.00000063,0.00188199,0.00000039,0.00000111,0.
 00708400,-0.00000150,0.00000066,0.00116442,-0.00000072,0.00000084,0.02
 119261,0.02860830,-0.00000046,0.00102991,0.00041981,0.00000019,0.00041
 085,-0.00120193,0.00000016,-0.00576074,-0.00103463,-0.00000002,0.00098
 466,0.00320780,0.00000055,-0.00435921,0.00134414,-0.00000042,0.0006574
 5,-0.04003942,-0.00000016,0.06107969,-0.17023390,-0.00000240,0.1275725
 3,0.01798959,0.00000311,0.01492502,-0.09461479,0.00000252,0.00464385,-
 0.00307098,0.00000110,0.00426907,-0.09197483,0.00000251,0.01573405,-0.
 00607107,-0.00000301,-0.00344995,-0.35317545,-0.00000068,0.03774939,0.
 91783889,0.00000471,-0.07796275,0.00000942,-0.00000038,-0.00871455,0.0
 0000133,-0.00000283,0.01683372,-0.00000557,-0.00000057,0.00286285,-0.0
 0000015,-0.00000515,0.01024919,0.00000454,-0.00000202,0.00548414,0.000
 00188,0.00000152,-0.02555398,0.00000014,0.00000241,0.13772345,0.150561
 56,0.00000799,-0.35907072,-0.01590724,-0.00000642,-0.00916013,-0.04738
 289,-0.00001108,-0.01225350,0.00408811,-0.00000178,-0.00510899,0.07850
 638,-0.00001089,-0.00192876,-0.00188434,0.00001246,0.00064767,0.032583
 09,0.00000282,-0.06096629,-0.08479485,-0.00000628,0.67498887,-0.006599
 74,-0.00000622,-0.02638351,-0.09627118,-0.00000214,0.09343202,-0.30108
 162,-0.00000125,0.07106227,-0.01636553,-0.00000065,0.01826843,-0.01722
 714,0.00000375,0.07056378,0.00060311,0.00000026,-0.00124137,-0.0125462
 4,-0.00000155,-0.02905345,-0.21668747,0.00000231,-0.11576983,0.6661758
 1,-0.00000616,0.02233665,-0.00002710,-0.00000064,-0.00450715,-0.000002
 30,0.00000358,-0.05329011,0.00000302,-0.00000445,-0.00414631,-0.000003
 30,0.00001673,0.01379664,0.00000549,0.00000131,0.00500268,-0.00000247,
 -0.00001030,-0.00186610,0.,-0.00000556,-0.06092208,0.00001319,0.000005
 48,0.08359578,0.03774863,0.00000191,-0.10749365,0.09188440,-0.00000306
 ,-0.44724791,0.07967726,-0.00000871,-0.14070525,-0.01916200,0.00000087
 ,0.01359626,0.00494065,-0.00000144,-0.07406164,-0.00284879,0.00000245,
 -0.00545805,0.00528727,-0.00000018,0.00692370,-0.11664906,-0.00000531,
 -0.22714816,-0.08087836,0.00001347,0.98159469\\-0.00018666,0.,-0.00014
 363,0.00002195,0.,-0.00001576,-0.00015467,0.,0.00016337,-0.00000714,0.
 ,-0.00003611,0.00030589,0.,-0.00002609,-0.00005454,0.,0.00000683,0.000
 01506,0.,-0.00000938,0.00008405,0.,0.00021866,-0.00002394,0.,-0.000157
 88\\\@

 THERE ARE TWO THINGS THAT EVERYBODY THINKS THEY CAN DO BETTER THAN
 ANYONE ELSE - PUNCH THE FIRE, AND EDIT A DAILY PAPER.
 -- UNCLE ESEK, "CENTURY MAGAZINE", 1885
 Job cpu time:  0 days  0 hours 13 minutes  4.5 seconds.
 File lengths (MBytes):  RWF=   14 Int=    0 D2E=    0 Chk=    3 Scr=    1
 Normal termination of Gaussian 98.
