 Gaussian 98, Revision A.6,
 Gaussian 98:  IBM-RS6000-G98RevA.6 19-Oct-1998

 --------------------------
 #MPW1PW91/6-311G* opt freq
 --------------------------

 --------------------------------
 1H imidazole C3H4N2 casno=288324
 --------------------------------
 Symbolic Z-matrix:
 Charge =  0 Multiplicity = 1

 SCF Done:  E(RmPW+HF-PW91) =  -226.151280986     A.U. after   14 cycles
 SCF Done:  E(RmPW+HF-PW91) =  -226.201527905     A.U. after   13 cycles
 SCF Done:  E(RmPW+HF-PW91) =  -226.208297188     A.U. after   12 cycles
 SCF Done:  E(RmPW+HF-PW91) =  -226.208541587     A.U. after   10 cycles
 SCF Done:  E(RmPW+HF-PW91) =  -226.208613911     A.U. after    9 cycles
 SCF Done:  E(RmPW+HF-PW91) =  -226.208618114     A.U. after    8 cycles
 Optimization completed.
    -- Stationary point found.
 Normal termination of Gaussian 98.

 ------------------------------------------------------
 #N Geom=AllCheck Guess=TCheck RmPW1PW91/6-311G(d) Freq
 ------------------------------------------------------

 1H imidazole C3H4N2 casno=288324
 --------------------------------
 Redundant internal coordinates taken from checkpointfile:
 /wrk/rdj3/Gau-15052.chk
 Charge =  0 Multiplicity = 1

                         Standard orientation:
 ---------------------------------------------------------------------
 Center     Atomic     Atomic              Coordinates (Angstroms)
 Number     Number      Type              X           Y           Z
 ---------------------------------------------------------------------
    1          7             0       -0.738486   -0.980607    0.000000
    2          1             0       -0.008164    2.104104    0.000000
    3          6             0        1.114245    0.298961    0.000000
    4          1             0        2.112518    0.703928    0.000000
    5          6             0        0.630768   -0.979337    0.000000
    6          1             0        1.191818   -1.901317    0.000000
    7          1             0       -2.094733    0.658621    0.000000
    8          6             0       -1.083686    0.280170    0.000000
    9          7             0        0.000000    1.100021    0.000000
 ---------------------------------------------------------------------

 SCF Done:  E(RmPW+HF-PW91) =  -226.208618114     A.U. after    1 cycles

  The electronic state is 1-A'.
 Alpha  occ. eigenvalues --  -14.45099 -14.36546 -10.28245 -10.25974 -10.24035
 Alpha  occ. eigenvalues --   -1.04974  -0.89979  -0.76873  -0.63963  -0.61122
 Alpha  occ. eigenvalues --   -0.58252  -0.45793  -0.45406  -0.45068  -0.42090
 Alpha  occ. eigenvalues --   -0.29704  -0.28251  -0.24251
 Alpha virt. eigenvalues --    0.03330   0.04160   0.07474   0.09256   0.09888
 Alpha virt. eigenvalues --    0.11817   0.20845   0.22645   0.24878   0.30115
 Alpha virt. eigenvalues --    0.33600   0.37639   0.39248   0.41641   0.41655

  Exact polarizability:  48.952  -1.070  46.815  -0.001  -0.001  22.245
 Approx polarizability:  72.889   1.386  74.927   0.000   0.000  31.621

                     1                      2                      3
                    A"                     A"                     A"
 Frequencies --   540.4130               655.3712               691.3744
 Red. masses --     1.5848                 2.2152                 2.7507
 Frc consts  --     0.2727                 0.5606                 0.7747
 IR Inten    --   104.2591                14.5394                 4.7571
 Raman Activ --     0.0000                 0.0000                 0.0000

                     4                      5                      6
                    A"                     A"                     A"
 Frequencies --   726.7054               816.9578               868.3955
 Red. masses --     1.2281                 1.3855                 1.3353
 Frc consts  --     0.3821                 0.5448                 0.5933
 IR Inten    --    39.6714                38.4764                 5.9525
 Raman Activ --     0.0000                 0.0000                 0.0000

                     7                      8                      9
                    A'                     A'                     A'
 Frequencies --   913.9947               954.2749              1090.9373
 Red. masses --     5.3574                 4.4253                 1.5349
 Frc consts  --     2.6369                 2.3743                 1.0763
 IR Inten    --     8.2361                 2.3768                34.0454
 Raman Activ --     0.0000                 0.0000                 0.0000

                    10                     11                     12
                    A'                     A'                     A'
 Frequencies --  1114.7108              1164.2488              1194.9730
 Red. masses --     1.4713                 1.3615                 6.4299
 Frc consts  --     1.0772                 1.0874                 5.4097
 IR Inten    --    28.1428                 2.4564                 4.0495
 Raman Activ --     0.0000                 0.0000                 0.0000

                    13                     14                     15
                    A'                     A'                     A'
 Frequencies --  1294.0840              1396.6587              1471.9267
 Red. masses --     1.3741                 3.6271                 3.1123
 Frc consts  --     1.3558                 4.1686                 3.9729
 IR Inten    --     0.5127                 7.1678                13.8281
 Raman Activ --     0.0000                 0.0000                 0.0000

                    16                     17                     18
                    A'                     A'                     A'
 Frequencies --  1532.9065              1589.2260              3267.5305
 Red. masses --     3.3889                 3.3250                 1.0926
 Frc consts  --     4.6918                 4.9478                 6.8728
 IR Inten    --    18.8029                14.8387                 8.7547
 Raman Activ --     0.0000                 0.0000                 0.0000

                    19                     20                     21
                    A'                     A'                     A'
 Frequencies --  3273.0132              3300.9110              3710.5618
 Red. masses --     1.0973                 1.1050                 1.0815
 Frc consts  --     6.9261                 7.0938                 8.7736
 IR Inten    --     2.3028                 3.3057                44.5772
 Raman Activ --     0.0000                 0.0000                 0.0000

 - Thermochemistry -
 -------------------
 Temperature   298.150 Kelvin.  Pressure   1.00000 Atm.
 Atom  1 has atomic number  7 and mass  14.00307

 Molecular mass:    68.03745 amu.
 Principal axes and moments of inertia in atomic units:
                           1         2         3
     EIGENVALUES --   183.13914 190.65234 373.79148
           X            0.46172   0.88703   0.00000
           Y            0.88703  -0.46172   0.00000
           Z            0.00000   0.00000   1.00000
 THIS MOLECULE IS AN ASYMMETRIC TOP.
 ROTATIONAL SYMMETRY NUMBER  1.
 ROTATIONAL TEMPERATURES (KELVIN)      0.47294     0.45430     0.23172
 ROTATIONAL CONSTANTS (GHZ)            9.85448     9.46614     4.82820
 Zero-point vibrational energy     188825.6 (Joules/Mol)
                                   45.13041 (Kcal/Mol)
 WARNING-- EXPLICIT CONSIDERATION OF   1 DEGREES OF FREEDOM AS
           VIBRATIONS MAY CAUSE SIGNIFICANT ERROR
 VIBRATIONAL TEMPERATURES:    777.53   942.93   994.73  1045.56  1175.41
          (KELVIN)           1249.42  1315.03  1372.98  1569.61  1603.81
                             1675.08  1719.29  1861.89  2009.47  2117.76
                             2205.50  2286.53  4701.22  4709.11  4749.25
                             5338.64

 Zero-point correction=                           0.071920 (Hartree/Particle)
 Thermal correction to Energy=                    0.075646
 Thermal correction to Enthalpy=                  0.076591
 Thermal correction to Gibbs Free Energy=         0.045678
 Sum of electronic and zero-point Energies=           -226.136698
 Sum of electronic and thermal Energies=              -226.132972
 Sum of electronic and thermal Enthalpies=            -226.132027
 Sum of electronic and thermal Free Energies=         -226.162940

                     E (Thermal)             CV                S
                      KCAL/MOL        CAL/MOL-KELVIN    CAL/MOL-KELVIN
 TOTAL                   47.469             13.199             65.061
 ELECTRONIC               0.000              0.000              0.000
 TRANSLATIONAL            0.889              2.981             38.570
 ROTATIONAL               0.889              2.981             24.083
 VIBRATIONAL             45.691              7.237              2.409
 VIBRATION  1             0.895              1.161              0.564
                       Q            LOG10(Q)             LN(Q)
 TOTAL BOT       0.976789D-21        -21.010199        -48.377771
 TOTAL V=0       0.117605D+13         12.070426         27.793183
 VIB (BOT)       0.108279D-32        -32.965457        -75.905771
 VIB (BOT)  1    0.293061D+00         -0.533042         -1.227373
 VIB (V=0)       0.130367D+01          0.115168          0.265184
 VIB (V=0)  1    0.107956D+01          0.033245          0.076550
 ELECTRONIC      0.100000D+01          0.000000          0.000000
 TRANSLATIONAL   0.220588D+08          7.343582         16.909224
 ROTATIONAL      0.408955D+05          4.611676         10.618776
 ***** Axes restored to original set *****
 -------------------------------------------------------------------
 Center     Atomic                   Forces (Hartrees/Bohr)
 Number     Number              X              Y              Z
 -------------------------------------------------------------------
    1          7           0.000227296    0.000000000    0.000165138
    2          1          -0.000017986    0.000000000    0.000014688
    3          6           0.000167456    0.000000000   -0.000203790
    4          1           0.000005802    0.000000000    0.000050791
    5          6          -0.000332350    0.000000000    0.000010910
    6          1           0.000062725    0.000000000   -0.000018785
    7          1          -0.000023463    0.000000000    0.000018233
    8          6          -0.000090576    0.000000000   -0.000247350
    9          7           0.000001096    0.000000000    0.000210164
 -------------------------------------------------------------------
 Cartesian Forces:  Max     0.000332350 RMS     0.000118784

 GradGradGradGradGradGradGradGradGradGradGradGradGradGradGradGradGradGrad
 Berny optimization.
 Internal  Forces:  Max     0.000208673 RMS     0.000058676
 Search for a local minimum.
 Step number   1 out of a maximum of  48
 All quantities printed in internal units (Hartrees-Bohrs-Radians)
 Second derivative matrix not updated -- analytic derivatives used.
     Eigenvalues ---    0.00549   0.01086   0.02008   0.02729   0.06066
     Eigenvalues ---    0.06294   0.09928   0.10584   0.11074   0.11850
     Eigenvalues ---    0.23543   0.24993   0.35947   0.37593   0.37930
     Eigenvalues ---    0.38191   0.41998   0.46040   0.48523   0.49302
     Eigenvalues ---    0.599471000.000001000.000001000.000001000.00000
     Eigenvalues --- 1000.000001000.000001000.000001000.000001000.00000
     Eigenvalues --- 1000.000001000.000001000.000001000.000001000.00000
     Eigenvalues --- 1000.000001000.000001000.00000
 Angle between quadratic step and forces=  28.15 degrees.
 Linear search not attempted -- first point.
 Iteration  1 RMS(Cart)=  0.00012724 RMS(Int)=  0.00000002
 Iteration  2 RMS(Cart)=  0.00000003 RMS(Int)=  0.00000000
 Variable       Old X    -DE/DX   Delta X   Delta X   Delta X     New X
                                 (Linear)    (Quad)   (Total)
    R1        2.58752   0.00021   0.00000   0.00065   0.00065   2.58817
    R2        2.47021   0.00008   0.00000   0.00017   0.00017   2.47038
    R3        1.89751  -0.00002   0.00000  -0.00003  -0.00003   1.89747
    R4        2.03578  -0.00003   0.00000  -0.00009  -0.00009   2.03569
    R5        2.58264   0.00005   0.00000   0.00008   0.00008   2.58272
    R6        2.59329  -0.00013   0.00000  -0.00038  -0.00038   2.59292
    R7        2.03953  -0.00006   0.00000  -0.00018  -0.00018   2.03935
    R8        2.04006  -0.00003   0.00000  -0.00006  -0.00006   2.04000
    R9        2.56789  -0.00015   0.00000  -0.00044  -0.00044   2.56746
    A1        1.83712  -0.00009   0.00000  -0.00028  -0.00028   1.83684
    A2        2.31777  -0.00005   0.00000  -0.00048  -0.00048   2.31729
    A3        2.13290   0.00003   0.00000   0.00038   0.00038   2.13327
    A4        1.83252   0.00003   0.00000   0.00010   0.00010   1.83262
    A5        1.93331  -0.00006   0.00000  -0.00018  -0.00018   1.93314
    A6        2.11653   0.00000   0.00000  -0.00029  -0.00029   2.11624
    A7        2.23334   0.00006   0.00000   0.00047   0.00047   2.23381
    A8        2.19622  -0.00004   0.00000  -0.00027  -0.00027   2.19595
    A9        1.95122   0.00005   0.00000   0.00017   0.00017   1.95139
   A10        2.13575  -0.00001   0.00000   0.00010   0.00010   2.13585
   A11        2.20224  -0.00005   0.00000  -0.00021  -0.00021   2.20203
   A12        2.21034  -0.00002   0.00000   0.00002   0.00002   2.21036
   A13        1.87060   0.00008   0.00000   0.00019   0.00019   1.87079
    D1        0.00000   0.00000   0.00000   0.00000   0.00000   0.00000
    D2        3.14159   0.00000   0.00000   0.00000   0.00000   3.14159
    D3        3.14159   0.00000   0.00000   0.00000   0.00000   3.14159
    D4        0.00000   0.00000   0.00000   0.00000   0.00000   0.00000
    D5        3.14159   0.00000   0.00000   0.00000   0.00000   3.14159
    D6        0.00000   0.00000   0.00000   0.00000   0.00000   0.00000
    D7        0.00000   0.00000   0.00000   0.00000   0.00000   0.00000
    D8        3.14159   0.00000   0.00000   0.00000   0.00000   3.14159
    D9        0.00000   0.00000   0.00000   0.00000   0.00000   0.00000
   D10        3.14159   0.00000   0.00000   0.00000   0.00000   3.14159
   D11        3.14159   0.00000   0.00000   0.00000   0.00000   3.14159
   D12        0.00000   0.00000   0.00000   0.00000   0.00000   0.00000
   D13        3.14159   0.00000   0.00000   0.00000   0.00000   3.14159
   D14        0.00000   0.00000   0.00000   0.00000   0.00000   0.00000
   D15        0.00000   0.00000   0.00000   0.00000   0.00000   0.00000
   D16        3.14159   0.00000   0.00000   0.00000   0.00000   3.14159
         Item               Value     Threshold  Converged?
 Maximum Force            0.000209     0.000450     YES
 RMS     Force            0.000059     0.000300     YES
 Maximum Displacement     0.000361     0.001800     YES
 RMS     Displacement     0.000127     0.001200     YES
 Predicted change in Energy=-2.153695D-07
 Optimization completed.
    -- Stationary point found.
                         ----------------------------
                         !   Optimized Parameters   !
                         ! (Angstroms and Degrees)  !
 ------------------------                            -------------------------
 ! Name  Definition              Value          Derivative Info.             !
 -----------------------------------------------------------------------------
 ! R1    R(1,5)                  1.3693         -DE/DX =    0.0002           !
 ! R2    R(1,8)                  1.3072         -DE/DX =    0.0001           !
 ! R3    R(2,9)                  1.0041         -DE/DX =    0.               !
 ! R4    R(3,4)                  1.0773         -DE/DX =    0.               !
 ! R5    R(3,5)                  1.3667         -DE/DX =    0.               !
 ! R6    R(3,9)                  1.3723         -DE/DX =   -0.0001           !
 ! R7    R(5,6)                  1.0793         -DE/DX =   -0.0001           !
 ! R8    R(7,8)                  1.0796         -DE/DX =    0.               !
 ! R9    R(8,9)                  1.3589         -DE/DX =   -0.0002           !
 ! A1    A(5,1,8)              105.2591         -DE/DX =   -0.0001           !
 ! A2    A(4,3,5)              132.7984         -DE/DX =   -0.0001           !
 ! A3    A(4,3,9)              122.2059         -DE/DX =    0.               !
 ! A4    A(5,3,9)              104.9957         -DE/DX =    0.               !
 ! A5    A(1,5,3)              110.7708         -DE/DX =   -0.0001           !
 ! A6    A(1,5,6)              121.2685         -DE/DX =    0.               !
 ! A7    A(3,5,6)              127.9607         -DE/DX =    0.0001           !
 ! A8    A(1,8,7)              125.8339         -DE/DX =    0.               !
 ! A9    A(1,8,9)              111.7967         -DE/DX =    0.               !
 ! A10   A(7,8,9)              122.3694         -DE/DX =    0.               !
 ! A11   A(2,9,3)              126.1791         -DE/DX =   -0.0001           !
 ! A12   A(2,9,8)              126.6431         -DE/DX =    0.               !
 ! A13   A(3,9,8)              107.1778         -DE/DX =    0.0001           !
 ! D1    D(8,1,5,3)              0.             -DE/DX =    0.               !
 ! D2    D(8,1,5,6)            180.             -DE/DX =    0.               !
 ! D3    D(5,1,8,7)            180.             -DE/DX =    0.               !
 ! D4    D(5,1,8,9)              0.             -DE/DX =    0.               !
 ! D5    D(4,3,5,1)            180.             -DE/DX =    0.               !
 ! D6    D(4,3,5,6)              0.             -DE/DX =    0.               !
 ! D7    D(9,3,5,1)              0.             -DE/DX =    0.               !
 ! D8    D(9,3,5,6)            180.             -DE/DX =    0.               !
 ! D9    D(4,3,9,2)              0.             -DE/DX =    0.               !
 ! D10   D(4,3,9,8)            180.             -DE/DX =    0.               !
 ! D11   D(5,3,9,2)            180.             -DE/DX =    0.               !
 ! D12   D(5,3,9,8)              0.             -DE/DX =    0.               !
 ! D13   D(1,8,9,2)            180.             -DE/DX =    0.               !
 ! D14   D(1,8,9,3)              0.             -DE/DX =    0.               !
 ! D15   D(7,8,9,2)              0.             -DE/DX =    0.               !
 ! D16   D(7,8,9,3)            180.             -DE/DX =    0.               !
 -----------------------------------------------------------------------------
 GradGradGradGradGradGradGradGradGradGradGradGradGradGradGradGradGradGrad

 1\1\GINC-FERRUM\Freq\RmPW1PW91\6-311G(d)\C3H4N2\RDJ3\11-Jan-2001\0\\#N
  GEOM=ALLCHECK GUESS=TCHECK RMPW1PW91/6-311G(D) FREQ\\1H imidazole C3H
 4N2 casno=288324\\0,1\N,0.4953669437,0.,1.123193714\H,0.4878482845,0.,
 -2.0467839042\C,-1.016690417,0.,-0.5452164924\H,-1.8962879605,0.,-1.16
 71935461\C,-0.837507647,0.,0.8096598345\H,-1.5940537526,0.,1.579375863
 7\H,2.1897385334,0.,-0.163499012\C,1.1190235417,0.,-0.0256209081\N,0.2
 508904889,0.,-1.0710271433\\Version=IBM-RS6000-G98RevA.6\State=1-A'\HF
 =-226.2086181\RMSD=3.079e-09\RMSF=1.188e-04\Dipole=-0.0977767,0.,-1.49
 59878\DipoleDeriv=-0.3922536,0.0001387,-0.0382893,0.0000575,-0.3037117
 ,0.0002703,-0.0164607,-0.00001,-0.5981861,0.1912416,0.0000558,-0.00165
 45,0.0000939,0.3477936,-0.0000983,-0.0002354,-0.0001761,0.1759973,-0.0
 054895,-0.0000563,-0.2369354,0.0000048,-0.13797,0.0000294,-0.0324116,-
 0.0000538,0.1761679,0.0102524,-0.000133,-0.0539247,-0.0000692,0.193068
 8,-0.0000128,-0.0780535,-0.0001003,0.0372874,0.2016076,-0.0000161,-0.0
 172196,-0.0000043,-0.1449519,-0.0001332,-0.0844263,0.0001407,0.1414455
 ,-0.0087946,-0.0000091,0.06985,0.0000255,0.1610762,-0.0000295,0.094559
 7,0.0000593,0.0242038,-0.0408723,-0.0000678,0.0394773,0.0000336,0.1633
 461,-0.0000213,0.0318024,0.0000177,0.070233,0.1336152,0.0001085,0.0693
 29,-0.0001224,0.002709,-0.0000249,0.0188902,0.0001692,0.5497471,-0.089
 3064,-0.0000207,0.169367,-0.0000196,-0.2813601,0.0000202,0.0663349,-0.
 0000466,-0.5768955\Polar=49.3161478,-0.0007899,22.2453777,-0.4844948,-
 0.001556,46.4509333\PG=CS [SG(C3H4N2)]\NImag=0\\0.51230788,0.00001144,
 0.10698274,-0.06035179,0.00000351,0.59530570,-0.00320566,0.00000359,-0
 .00829513,0.08419412,-0.00000214,0.00723543,0.00000189,-0.00000048,0.0
 1204203,-0.00297433,-0.00000838,-0.00372959,-0.09891043,0.00000276,0.4
 6525230,-0.03343646,-0.00000720,-0.01351815,0.00734657,0.00000247,-0.0
 0233742,0.76233643,-0.00000055,0.01741177,0.00000041,0.00000058,-0.007
 80993,-0.00000183,-0.00000020,0.10985566,-0.08952267,-0.00000081,-0.02
 042176,0.02892917,-0.00000211,-0.00073075,0.16019681,-0.00000003,0.755
 75839,0.00159756,-0.00000309,0.00111182,0.00003537,0.00000021,0.000155
 98,-0.25831459,0.00000152,-0.14090607,0.27243117,-0.00000064,0.0071817
 3,-0.00000175,-0.00000008,-0.00111476,-0.00000159,-0.00000010,-0.02019
 917,0.00000048,-0.00000081,0.01823554,-0.00424031,-0.00000100,-0.00559
 463,-0.00095930,0.00000014,0.00015103,-0.15171005,0.00000107,-0.167113
 88,0.15517626,-0.00000074,0.15954522,-0.27147220,-0.00000201,-0.042679
 40,-0.00866489,-0.00000302,-0.00118085,-0.10263949,-0.00000049,-0.0198
 4910,0.00513113,0.00000130,-0.02171741,0.68024950,-0.00000556,-0.07180
 064,-0.00000035,-0.00000179,0.00250550,0.00000484,0.00000348,-0.066378
 45,-0.00000017,0.00000167,-0.00173433,0.00000087,-0.00000041,0.1346605
 1,-0.05118717,-0.00000226,-0.11433585,0.00359022,0.00000518,0.00028736
 ,-0.03668647,-0.00000121,-0.39978762,0.00133554,0.00000061,0.00306154,
 -0.15423390,0.00000230,0.81089994,-0.01985343,-0.00000279,0.02083005,0
 .00078426,0.00000279,-0.00001942,0.00887312,0.00000106,-0.00564760,-0.
 00027387,-0.00000063,0.00068255,-0.19448051,0.00000193,0.14807721,0.21
 100326,0.00000135,-0.00540810,-0.00000147,0.00000020,0.00211356,-0.000
 00059,0.00000040,-0.00044340,-0.00000008,-0.00000108,-0.00221796,-0.00
 000103,0.00000119,-0.02867036,-0.00000022,-0.00000084,0.02308582,-0.00
 645482,0.00000504,0.01214546,0.00122106,-0.00000366,0.00020063,0.02042
 671,-0.00000057,-0.00745608,-0.00051012,0.00000029,-0.00029966,0.15067
 102,-0.00000357,-0.21982215,-0.16060911,0.00000160,0.21939910,-0.00888
 929,0.00000079,0.00408637,-0.00064409,0.00000314,-0.00058757,0.0009130
 7,0.00000364,-0.00320180,-0.00031925,-0.00000278,0.00036200,0.00101620
 ,0.00000065,0.00261724,-0.00033652,-0.00000157,-0.00015085,0.37166162,
 0.00000175,-0.00538172,-0.00000011,0.00000079,-0.00129194,-0.00000255,
 -0.00000015,0.00271348,-0.00000118,-0.00000127,0.00188031,-0.00000077,
 -0.00000087,0.00716594,0.00000252,0.00000018,0.00109789,-0.00000019,0.
 00000007,0.02093769,0.02947606,0.,0.00055310,0.00052159,-0.00000052,0.
 00027765,-0.00099160,-0.00000036,-0.00584496,-0.00102133,0.00000046,0.
 00099399,0.00315622,-0.00000022,-0.00433184,0.00134692,0.00000026,0.00
 066699,-0.03882703,0.00000005,0.06224171,-0.17197851,-0.00000052,0.125
 63943,0.01934221,-0.00000258,0.01376601,-0.09467083,-0.00000276,0.0049
 1416,-0.00330546,0.00000306,0.00408319,-0.09193929,-0.00000063,0.01523
 553,-0.00622601,0.00000066,-0.00338964,-0.35077217,-0.00000003,0.03611
 817,0.91458271,-0.00000692,-0.07863375,-0.00000059,-0.00000181,-0.0089
 5124,0.00000351,0.00000162,0.01728199,0.00000180,0.00000316,0.00276412
 ,0.00000191,0.00000101,0.01061389,-0.00000161,0.00000139,0.00547515,-0
 .00000282,0.00000064,-0.02495546,-0.00000010,0.00000068,0.13726587,0.1
 4737185,0.00000597,-0.35482587,-0.01685630,-0.00000197,-0.01084029,-0.
 04821256,0.00000170,-0.01155645,0.00391843,0.00000074,-0.00533362,0.07
 950556,-0.00000404,-0.00127750,-0.00172247,0.00000126,0.00060827,0.031
 13555,0.00000164,-0.06197845,-0.08803385,-0.00000331,0.66630682,-0.005
 06989,-0.00000022,-0.02682321,-0.09918789,-0.00000040,0.09208803,-0.29
 040782,-0.00000280,0.06508708,-0.01698206,0.00000069,0.01832306,-0.017
 20047,0.00000066,0.07125180,0.00050971,-0.00000031,-0.00120425,-0.0126
 2957,-0.00000048,-0.02977900,-0.21503266,0.00000025,-0.10710622,0.6560
 0065,0.00000127,0.02241255,-0.00000154,-0.00000100,-0.00472865,0.00000
 381,-0.00000034,-0.05243195,0.00000210,-0.00000031,-0.00479548,-0.0000
 0045,0.00000330,0.01363792,-0.00000530,-0.00000308,0.00496740,0.000003
 87,-0.00000458,-0.00216619,0.00000044,0.00000213,-0.06086057,-0.000002
 02,0.00000262,0.08396497,0.03788319,-0.00000206,-0.10909655,0.09075912
 ,-0.00000171,-0.45086834,0.07283272,0.00000082,-0.14284689,-0.01926053
 ,0.00000151,0.01459000,0.00632785,0.00000034,-0.07469388,-0.00293814,0
 .00000026,-0.00544256,0.00456607,0.00000057,0.00742181,-0.10833300,0.0
 0000121,-0.22110292,-0.08183729,-0.00000092,0.98203934\\-0.00022730,0.
 ,-0.00016514,0.00001799,0.,-0.00001469,-0.00016746,0.,0.00020379,-0.00
 000580,0.,-0.00005079,0.00033235,0.,-0.00001091,-0.00006272,0.,0.00001
 879,0.00002346,0.,-0.00001823,0.00009058,0.,0.00024735,-0.00000110,0.,
 -0.00021016\\\@

 "I COULD HAVE DONE IT IN A MUCH MORE COMPLICATED WAY"
 SAID THE RED QUEEN, IMMENSELY PROUD.

                                      -- LEWIS CARROLL
 Job cpu time:  0 days  0 hours 13 minutes 47.6 seconds.
 File lengths (MBytes):  RWF=   20 Int=    0 D2E=    0 Chk=    3 Scr=    1
 Normal termination of Gaussian 98.
