 Gaussian 98, Revision A.6,
 Gaussian 98:  IBM-RS6000-G98RevA.6 19-Oct-1998

 ----------------
 #CCSD(T)/cc-pVDZ
 ----------------

 ----------------------------------------------------
 1himidaz single point casno=288324 method=27 basis=5
 ----------------------------------------------------
 Symbolic Z-matrix:
 Charge =  0 Multiplicity = 1

                         Standard orientation:
 ---------------------------------------------------------------------
 Center     Atomic     Atomic              Coordinates (Angstroms)
 Number     Number      Type              X           Y           Z
 ---------------------------------------------------------------------
    1          7             0       -0.741059   -0.965959    0.000000
    2          1             0       -0.012734    2.088247    0.000000
    3          6             0        1.109862    0.288272    0.000000
    4          1             0        2.103339    0.681436    0.000000
    5          6             0        0.630182   -0.973920    0.000000
    6          1             0        1.182239   -1.890444    0.000000
    7          1             0       -2.077162    0.655969    0.000000
    8          6             0       -1.074756    0.279096    0.000000
    9          7             0        0.000000    1.095117    0.000000
 ---------------------------------------------------------------------

 SCF Done:  E(RHF) =  -224.836195399     A.U. after   15 cycles
 CCSD(T)= -0.22560596966D+03

  The electronic state is 1-A'.
 Alpha  occ. eigenvalues --  -15.61761 -15.53575 -11.29066 -11.25777 -11.23720
 Alpha  occ. eigenvalues --   -1.34841  -1.16862  -1.01096  -0.82750  -0.79912
 Alpha  occ. eigenvalues --   -0.75960  -0.60865  -0.59923  -0.59877  -0.56662
 Alpha  occ. eigenvalues --   -0.42961  -0.39472  -0.32068
 Alpha virt. eigenvalues --    0.17390   0.18958   0.22301   0.23077   0.24281
 Alpha virt. eigenvalues --    0.24672   0.37590   0.39930   0.44777   0.46433
 Alpha virt. eigenvalues --    0.59931   0.63126   0.67766   0.67825   0.71971

 263\MP4SDQ=-225.5765286\CCSD=-225.5764346\CCSD(T)=-225.6059697\RMSD=3.
 Normal termination of Gaussian 98.
