 Gaussian 09, Revision B.01,
 Gaussian 09:  EM64L-G09RevB.01 12-Aug-2010

 -------------------------
 #MP2=FULL/STO-3G opt freq
 -------------------------

 ---------------------------------------------------------------------
 1himidaz 1H-Imidazole casno=288324 state=1 config=1 method=2 basis=20
 ---------------------------------------------------------------------
 Symbolic Z-matrix:
 Charge =  0 Multiplicity = 1

 SCF Done:  E(RHF) =  -221.982424833     A.U. after   13 cycles
 E2 =    -0.2815578106D+00 EUMP2 =    -0.22226398264338D+03
 SCF Done:  E(RHF) =  -221.978442225     A.U. after   13 cycles
 E2 =    -0.3078906516D+00 EUMP2 =    -0.22228633287696D+03
 SCF Done:  E(RHF) =  -221.979189397     A.U. after   11 cycles
 E2 =    -0.3074592861D+00 EUMP2 =    -0.22228664868327D+03
 SCF Done:  E(RHF) =  -221.979133856     A.U. after   10 cycles
 E2 =    -0.3075456801D+00 EUMP2 =    -0.22228667953611D+03
 SCF Done:  E(RHF) =  -221.979029459     A.U. after    9 cycles
 E2 =    -0.3076533478D+00 EUMP2 =    -0.22228668280626D+03
 Optimization completed.
    -- Stationary point found.
 Normal termination of Gaussian 09 at Wed Feb  8 11:17:15 2012.

 ---------------------------------------------------------------------
 #N Geom=AllCheck Guess=TCheck SCRF=Check GenChk RMP2-Full/STO-3G Freq
 ---------------------------------------------------------------------

 1himidaz 1H-Imidazole casno=288324 state=1 config=1 method=2 basis=20
 ---------------------------------------------------------------------
 Redundant internal coordinates taken from checkpoint file:
 /tmp/rdj3/g09-5811/Gau-5857.chk
 Charge =  0 Multiplicity = 1

                         Standard orientation:
 ---------------------------------------------------------------------
 Center     Atomic      Atomic             Coordinates (Angstroms)
 Number     Number       Type             X           Y           Z
 ---------------------------------------------------------------------
      1          7           0       -0.773549   -1.040736    0.000000
      2          1           0       -0.008725    2.179174    0.000000
      3          6           0        1.144373    0.311905    0.000000
      4          1           0        2.155654    0.733187    0.000000
      5          6           0        0.666025   -0.990586    0.000000
      6          1           0        1.257611   -1.913482    0.000000
      7          1           0       -2.141403    0.686302    0.000000
      8          6           0       -1.118447    0.285798    0.000000
      9          7           0        0.000000    1.136753    0.000000
 ---------------------------------------------------------------------

 SCF Done:  E(RHF) =  -221.979029459     A.U. after    1 cycles
 E2 =    -0.3076533484D+00 EUMP2 =    -0.22228668280695D+03
 E2 =    -0.3076533484D+00 EUMP2 =    -0.22228668280695D+03

 The electronic state is 1-A'.
 Alpha  occ. eigenvalues --  -15.41765 -15.30682 -11.08878 -11.05882 -11.02548
 Alpha  occ. eigenvalues --   -1.24270  -1.07778  -0.93274  -0.75225  -0.72425
 Alpha  occ. eigenvalues --   -0.68656  -0.53276  -0.52845  -0.52399  -0.48433
 Alpha  occ. eigenvalues --   -0.34934  -0.30845  -0.25902
 Alpha virt. eigenvalues --    0.28984   0.35975   0.52505   0.59892   0.60551
 Alpha virt. eigenvalues --    0.65089   0.70924   0.74020   0.88466   0.91290
 Alpha virt. eigenvalues --    1.03180

 Mulliken atomic charges:
              1
     1  N   -0.250948
     2  H    0.221083
     3  C    0.012154
     4  H    0.078345
     5  C   -0.023147
     6  H    0.067162
     7  H    0.082030
     8  C    0.117526
     9  N   -0.304205
 Sum of Mulliken atomic charges =   0.00000

 Dipole moment (field-independent basis, Debye):
    X=              1.0547    Y=              3.4371    Z=              0.0000  Tot=              3.5953
 Quadrupole moment (field-independent basis, Debye-Ang):
   XX=            -25.3943   YY=            -24.8663   ZZ=            -28.3787
   XY=             -2.8123   XZ=              0.0000   YZ=              0.0000

  Exact polarizability:  29.171  -1.972  29.896   0.000   0.000   5.118
 Approx polarizability:  29.616   0.246  35.305   0.000   0.000   3.801

                     1                      2                      3
                    A"                     A"                     A"
 Frequencies --   435.8282               658.8994               669.8242
 Red. masses --     1.7001                 2.9555                 3.4573
 Frc consts  --     0.1903                 0.7560                 0.9139
 IR Inten    --    78.4523                 9.5971                 3.0640

                     4                      5                      6
                    A"                     A"                     A"
 Frequencies --   793.8415               824.9814               917.7932
 Red. masses --     1.2275                 1.1213                 1.2294
 Frc consts  --     0.4558                 0.4496                 0.6101
 IR Inten    --     7.6778                12.6969                 0.5756

                     7                      8                      9
                    A'                     A'                     A'
 Frequencies --   921.8227               958.5771              1106.4936
 Red. masses --     5.7783                 4.8666                 1.9543
 Frc consts  --     2.8930                 2.6347                 1.4097
 IR Inten    --     2.7570                 1.0012                 3.2242

                    10                     11                     12
                    A'                     A'                     A'
 Frequencies --  1149.2565              1184.5756              1201.5027
 Red. masses --     1.5487                 2.3787                 1.4189
 Frc consts  --     1.2051                 1.9666                 1.2069
 IR Inten    --     4.6360                14.7400                 2.8211

                    13                     14                     15
                    A'                     A'                     A'
 Frequencies --  1293.8595              1419.5935              1577.1217
 Red. masses --     1.7767                 2.1324                 4.9713
 Frc consts  --     1.7524                 2.5319                 7.2854
 IR Inten    --     1.5576                13.9739                20.0553

                    16                     17                     18
                    A'                     A'                     A'
 Frequencies --  1599.5496              1634.0444              3557.4861
 Red. masses --     2.5119                 3.6473                 1.0950
 Frc consts  --     3.7865                 5.7379                 8.1650
 IR Inten    --     9.7580                11.8842                 8.8561

                    19                     20                     21
                    A'                     A'                     A'
 Frequencies --  3558.6068              3586.2611              3859.9523
 Red. masses --     1.0960                 1.1106                 1.0858
 Frc consts  --     8.1772                 8.4160                 9.5316
 IR Inten    --     8.2458                 6.9737                63.7192

 - Thermochemistry -
 -------------------
 Temperature   298.150 Kelvin.  Pressure   1.00000 Atm.
 Atom     1 has atomic number  7 and mass  14.00307

 Molecular mass:    68.03745 amu.
 Principal axes and moments of inertia in atomic units:
                           1         2         3
     Eigenvalues --   194.20633 205.53905 399.74538
           X            0.53861   0.84256   0.00000
           Y            0.84256  -0.53861   0.00000
           Z            0.00000   0.00000   1.00000
 This molecule is an asymmetric top.
 Rotational symmetry number  1.
 Rotational temperatures (Kelvin)      0.44599     0.42140     0.21667
 Rotational constants (GHZ):           9.29291     8.78053     4.51473
 Zero-point vibrational energy     196844.7 (Joules/Mol)
                                   47.04702 (Kcal/Mol)
 Warning -- explicit consideration of   1 degrees of freedom as
           vibrations may cause significant error
 Vibrational temperatures:    627.06   948.01   963.73  1142.16  1186.96
          (Kelvin)           1320.50  1326.30  1379.18  1592.00  1653.52
                             1704.34  1728.69  1861.57  2042.48  2269.12
                             2301.39  2351.02  5118.42  5120.04  5159.82
                             5553.60

 Zero-point correction=                           0.074974 (Hartree/Particle)
 Thermal correction to Energy=                    0.078741
 Thermal correction to Enthalpy=                  0.079685
 Thermal correction to Gibbs Free Energy=         0.048598
 Sum of electronic and zero-point Energies=           -222.211709
 Sum of electronic and thermal Energies=              -222.207942
 Sum of electronic and thermal Enthalpies=            -222.206998
 Sum of electronic and thermal Free Energies=         -222.238085

                     E (Thermal)             CV                S
                      KCal/Mol        Cal/Mol-Kelvin    Cal/Mol-Kelvin
 Total                   49.411             13.135             65.428
 Electronic               0.000              0.000              0.000
 Translational            0.889              2.981             38.570
 Rotational               0.889              2.981             24.282
 Vibrational             47.633              7.174              2.576
 Vibration     1          0.796              1.392              0.840

 Optimization completed.
    -- Stationary point found.
 Normal termination of Gaussian 09 at Wed Feb  8 11:17:21 2012.
