 Gaussian 03, Revision C.02,
 Gaussian 03:  IA32L-G03RevC.02 12-Jun-2004

 ------------------------------
 #MP2=FULL/6-311G(d,p) opt freq
 ------------------------------

 --------------------------------------------------
 1H imidazole C3H4N2 casno=288324 method=2 basis=21
 --------------------------------------------------
 Symbolic Z-matrix:
 Charge =  0 Multiplicity = 1

 SCF Done:  E(RHF) =  -224.820280882     A.U. after   13 cycles
 E2 =    -0.8403611583D+00 EUMP2 =    -0.22566064204062D+03
 SCF Done:  E(RHF) =  -224.864010845     A.U. after   13 cycles
 E2 =    -0.8516581869D+00 EUMP2 =    -0.22571566903211D+03
 SCF Done:  E(RHF) =  -224.865580907     A.U. after   13 cycles
 E2 =    -0.8587672126D+00 EUMP2 =    -0.22572434811936D+03
 SCF Done:  E(RHF) =  -224.866214598     A.U. after   10 cycles
 E2 =    -0.8583319906D+00 EUMP2 =    -0.22572454658889D+03
 SCF Done:  E(RHF) =  -224.866548145     A.U. after   10 cycles
 E2 =    -0.8580548891D+00 EUMP2 =    -0.22572460303409D+03
 SCF Done:  E(RHF) =  -224.866710112     A.U. after    9 cycles
 E2 =    -0.8578987485D+00 EUMP2 =    -0.22572460886020D+03
 Optimization completed.
    -- Stationary point found.
 Normal termination of Gaussian 03 at Wed Feb  9 11:42:57 2005.

 ----------------------------------------------------------------------
 #N Geom=AllCheck Guess=Read SCRF=Check GenChk RMP2(Full)/6-311G(d,p) F
 req
 ----------------------------------------------------------------------

 1H imidazole C3H4N2 casno=288324 method=2 basis=21
 --------------------------------------------------
 Redundant internal coordinates taken from checkpoint file:
 /scratch/Gau-1672.chk
 Charge =  0 Multiplicity = 1

                         Standard orientation:
 ---------------------------------------------------------------------
 Center     Atomic     Atomic              Coordinates (Angstroms)
 Number     Number      Type              X           Y           Z
 ---------------------------------------------------------------------
    1          7             0       -0.740188   -0.993056    0.000000
    2          1             0       -0.010869    2.111678    0.000000
    3          6             0        1.118901    0.307751    0.000000
    4          1             0        2.117574    0.714992    0.000000
    5          6             0        0.633325   -0.984073    0.000000
    6          1             0        1.201847   -1.902381    0.000000
    7          1             0       -2.100918    0.662930    0.000000
    8          6             0       -1.089946    0.282419    0.000000
    9          7             0        0.000000    1.103942    0.000000
 ---------------------------------------------------------------------

 SCF Done:  E(RHF) =  -224.866710112     A.U. after    1 cycles
 E2 =    -0.8578987518D+00 EUMP2 =    -0.22572460886348D+03

 The electronic state is 1-A'.
 Alpha  occ. eigenvalues --  -15.62030 -15.53957 -11.29454 -11.25995 -11.24093
 Alpha  occ. eigenvalues --   -1.33826  -1.16442  -1.00275  -0.82735  -0.79668
 Alpha  occ. eigenvalues --   -0.75562  -0.60563  -0.60102  -0.59455  -0.56641
 Alpha  occ. eigenvalues --   -0.43443  -0.39659  -0.31592
 Alpha virt. eigenvalues --    0.14123   0.17535   0.18417   0.19494   0.21199
 Alpha virt. eigenvalues --    0.22804   0.34980   0.37339   0.40543   0.43471
 Alpha virt. eigenvalues --    0.50753   0.53925   0.56107   0.58525   0.59901

 Mulliken atomic charges:
              1
     1  N   -0.392726
     2  H    0.241925
     3  C    0.004866
     4  H    0.117445
     5  C   -0.031785
     6  H    0.106931
     7  H    0.119676
     8  C    0.243688
     9  N   -0.410021
 Sum of Mulliken charges=   0.00000

 Dipole moment (field-independent basis, Debye):
    X=     1.0694    Y=     3.7833    Z=     0.0000  Tot=     3.9316
 Quadrupole moment (field-independent basis, Debye-Ang):
   XX=   -26.2278   YY=   -25.5969   ZZ=   -32.2848
   XY=    -3.5557   XZ=     0.0000   YZ=     0.0000

  Exact polarizability:  49.001  -1.468  46.477   0.000   0.000  22.245
 Approx polarizability:  44.721   0.588  46.830   0.000   0.000  24.418

                     1                      2                      3
                    A"                     A"                     A"
 Frequencies --   522.4490               642.7080               682.1936
 Red. masses --     1.8006                 2.6119                 2.6355
 Frc consts  --     0.2896                 0.6357                 0.7226
 IR Inten    --    78.5172                27.6957                 0.4256

                     4                      5                      6
                    A"                     A"                     A"
 Frequencies --   705.6734               790.4303               832.1475
 Red. masses --     1.1991                 1.2919                 1.2403
 Frc consts  --     0.3518                 0.4756                 0.5060
 IR Inten    --    25.6000                44.1391                12.8948

                     7                      8                      9
                    A'                     A'                     A'
 Frequencies --   901.0426               939.7891              1090.5125
 Red. masses --     5.3450                 4.4695                 1.5241
 Frc consts  --     2.5568                 2.3258                 1.0679
 IR Inten    --     6.8670                 2.1984                20.7253

                    10                     11                     12
                    A'                     A'                     A'
 Frequencies --  1109.4226              1157.9666              1197.4749
 Red. masses --     1.4411                 1.4191                 5.3181
 Frc consts  --     1.0451                 1.1211                 4.4931
 IR Inten    --    30.1502                 2.6550                 3.7458

                    13                     14                     15
                    A'                     A'                     A'
 Frequencies --  1282.0512              1378.4766              1479.0953
 Red. masses --     1.3803                 3.3035                 4.1720
 Frc consts  --     1.3367                 3.6985                 5.3775
 IR Inten    --     0.7991                 7.9314                14.3060

                    16                     17                     18
                    A'                     A'                     A'
 Frequencies --  1516.5432              1545.1018              3290.2616
 Red. masses --     3.2972                 3.0151                 1.0921
 Frc consts  --     4.4679                 4.2409                 6.9661
 IR Inten    --    20.4082                 8.0903                 3.8354

                    19                     20                     21
                    A'                     A'                     A'
 Frequencies --  3296.6088              3320.2591              3698.7170
 Red. masses --     1.0969                 1.1055                 1.0823
 Frc consts  --     7.0236                 7.1803                 8.7238
 IR Inten    --     0.8371                 0.9129                73.9282

 - Thermochemistry -
 -------------------
 Temperature   298.150 Kelvin.  Pressure   1.00000 Atm.
 Atom  1 has atomic number  7 and mass  14.00307

 Molecular mass:    68.03745 amu.
 Principal axes and moments of inertia in atomic units:
                           1         2         3
     EIGENVALUES --   184.43849 193.44718 377.88566
           X            0.45335   0.89133   0.00000
           Y            0.89133  -0.45335   0.00000
           Z            0.00000   0.00000   1.00000
 This molecule is an asymmetric top.
 Rotational symmetry number  1.
 Rotational temperatures (Kelvin)      0.46961     0.44774     0.22921
 Rotational constants (GHZ):           9.78506     9.32937     4.77589
 Zero-point vibrational energy     187687.6 (Joules/Mol)
                                   44.85842 (Kcal/Mol)
 Warning -- explicit consideration of   1 degrees of freedom as
           vibrations may cause significant error
 Vibrational temperatures:    751.69   924.71   981.52  1015.31  1137.25
          (Kelvin)           1197.27  1296.40  1352.15  1569.00  1596.21
                             1666.05  1722.90  1844.58  1983.32  2128.09
                             2181.96  2223.05  4733.95  4743.08  4777.11
                             5321.62

 Zero-point correction=                           0.071486 (Hartree/Particle)
 Thermal correction to Energy=                    0.075267
 Thermal correction to Enthalpy=                  0.076211
 Thermal correction to Gibbs Free Energy=         0.045208
 Sum of electronic and zero-point Energies=           -225.653122
 Sum of electronic and thermal Energies=              -225.649342
 Sum of electronic and thermal Enthalpies=            -225.648397
 Sum of electronic and thermal Free Energies=         -225.679401

                     E (Thermal)             CV                S
                      KCal/Mol        Cal/Mol-Kelvin    Cal/Mol-Kelvin
 Total                   47.231             13.486             65.253
 Electronic               0.000              0.000              0.000
 Translational            0.889              2.981             38.570
 Rotational               0.889              2.981             24.115
 Vibrational             45.453              7.525              2.568
 Vibration  1             0.877              1.200              0.604

 Optimization completed.
    -- Stationary point found.
 Normal termination of Gaussian 03 at Wed Feb  9 12:07:55 2005.
