 Gaussian 98, Revision A.7,
 Gaussian 98:  SGI64-G98RevA.7 11-Apr-1999

 --------------------------
 #MP2=FULL/6-31G** opt freq
 --------------------------

 --------------------------------
 1H imidazole C3H4N2 casno=288324
 --------------------------------
 Symbolic Z-matrix:
 Charge =  0 Multiplicity = 1

 SCF Done:  E(RHF) =  -224.773688403     A.U. after   13 cycles
 E2 =    -0.7387557806D+00 EUMP2 =    -0.22551244418364D+03
 SCF Done:  E(RHF) =  -224.818500814     A.U. after   13 cycles
 E2 =    -0.7483832901D+00 EUMP2 =    -0.22556688410380D+03
 SCF Done:  E(RHF) =  -224.820669260     A.U. after   13 cycles
 E2 =    -0.7542163505D+00 EUMP2 =    -0.22557488561066D+03
 SCF Done:  E(RHF) =  -224.821232670     A.U. after   10 cycles
 E2 =    -0.7538634096D+00 EUMP2 =    -0.22557509607999D+03
 SCF Done:  E(RHF) =  -224.821527529     A.U. after   11 cycles
 E2 =    -0.7536246915D+00 EUMP2 =    -0.22557515222068D+03
 SCF Done:  E(RHF) =  -224.821663910     A.U. after   10 cycles
 E2 =    -0.7534933173D+00 EUMP2 =    -0.22557515722752D+03
 Optimization completed.
    -- Stationary point found.
 Normal termination of Gaussian 98.

 --------------------------------------------------------
 #N Geom=AllCheck Guess=TCheck RMP2(Full)/6-31G(d,p) Freq
 --------------------------------------------------------

 1H imidazole C3H4N2 casno=288324
 --------------------------------
 Redundant internal coordinates taken from checkpointfile:
 /wrk/Gau-4740922.chk
 Charge =  0 Multiplicity = 1

                         Standard orientation:
 ---------------------------------------------------------------------
 Center     Atomic     Atomic              Coordinates (Angstroms)
 Number     Number      Type              X           Y           Z
 ---------------------------------------------------------------------
    1          7             0       -0.740101   -0.993084    0.000000
    2          1             0       -0.011525    2.109222    0.000000
    3          6             0        1.118400    0.305932    0.000000
    4          1             0        2.113035    0.711788    0.000000
    5          6             0        0.634414   -0.982266    0.000000
    6          1             0        1.201618   -1.896389    0.000000
    7          1             0       -2.097198    0.663019    0.000000
    8          6             0       -1.090350    0.283076    0.000000
    9          7             0        0.000000    1.103357    0.000000
 ---------------------------------------------------------------------

 SCF Done:  E(RHF) =  -224.821663910     A.U. after    1 cycles
 E2 =    -0.7534933174D+00 EUMP2 =    -0.22557515722763D+03

  The electronic state is 1-A'.
 Alpha  occ. eigenvalues --  -15.62562 -15.54419 -11.29399 -11.25893 -11.23904
 Alpha  occ. eigenvalues --   -1.33445  -1.16036  -1.00047  -0.82424  -0.79356
 Alpha  occ. eigenvalues --   -0.75338  -0.60203  -0.59812  -0.59056  -0.56301
 Alpha  occ. eigenvalues --   -0.42965  -0.39166  -0.31279
 Alpha virt. eigenvalues --    0.18691   0.21756   0.24208   0.28233   0.29745
 Alpha virt. eigenvalues --    0.31831   0.39698   0.40960   0.48690   0.51382
 Alpha virt. eigenvalues --    0.67485   0.71431   0.76898   0.79766   0.81073

  Exact polarizability:  46.659  -1.525  44.580   0.000   0.000  17.382
 Approx polarizability:  43.035   0.655  45.645   0.000   0.000  19.580

                     1                      2                      3
                    A"                     A"                     A"
 Frequencies --   534.4883               642.1201               686.7951
 Red. masses --     1.9063                 2.7916                 2.7417
 Frc consts  --     0.3209                 0.6782                 0.7620
 IR Inten    --    80.7082                36.2909                 0.0257
 Raman Activ --     0.0000                 0.0000                 0.0000

                     4                      5                      6
                    A"                     A"                     A"
 Frequencies --   704.8775               781.9791               833.4174
 Red. masses --     1.1819                 1.2326                 1.2078
 Frc consts  --     0.3460                 0.4441                 0.4943
 IR Inten    --    14.6661                38.4450                15.5240
 Raman Activ --     0.0000                 0.0000                 0.0000

                     7                      8                      9
                    A'                     A'                     A'
 Frequencies --   904.3297               944.1293              1106.4995
 Red. masses --     5.5619                 4.8291                 1.5500
 Frc consts  --     2.6799                 2.5362                 1.1181
 IR Inten    --     7.0093                 1.7660                24.5747
 Raman Activ --     0.0000                 0.0000                 0.0000

                    10                     11                     12
                    A'                     A'                     A'
 Frequencies --  1129.8428              1177.7867              1202.8884
 Red. masses --     1.4684                 1.4766                 4.4436
 Frc consts  --     1.1044                 1.2069                 3.7882
 IR Inten    --    22.2219                 2.7309                 3.3982
 Raman Activ --     0.0000                 0.0000                 0.0000

                    13                     14                     15
                    A'                     A'                     A'
 Frequencies --  1306.9238              1407.3701              1504.1594
 Red. masses --     1.4204                 2.9515                 3.9069
 Frc consts  --     1.4294                 3.4443                 5.2080
 IR Inten    --     0.9826                10.4305                19.1936
 Raman Activ --     0.0000                 0.0000                 0.0000

                    16                     17                     18
                    A'                     A'                     A'
 Frequencies --  1544.2981              1576.6700              3340.0683
 Red. masses --     3.1860                 3.0579                 1.0921
 Frc consts  --     4.4767                 4.4787                 7.1782
 IR Inten    --    20.8182                 7.7743                 4.8271
 Raman Activ --     0.0000                 0.0000                 0.0000

                    19                     20                     21
                    A'                     A'                     A'
 Frequencies --  3344.0304              3369.7169              3742.7960
 Red. masses --     1.0967                 1.1048                 1.0822
 Frc consts  --     7.2259                 7.3915                 8.9323
 IR Inten    --     0.6619                 1.0644                71.4015
 Raman Activ --     0.0000                 0.0000                 0.0000

 - Thermochemistry -
 -------------------
 Temperature   298.150 Kelvin.  Pressure   1.00000 Atm.
 Atom  1 has atomic number  7 and mass  14.00307

 Molecular mass:    68.03745 amu.
 Principal axes and moments of inertia in atomic units:
                           1         2         3
     EIGENVALUES --   184.40143 193.01831 377.41974
           X            0.45755   0.88918   0.00000
           Y            0.88918  -0.45755   0.00000
           Z            0.00000   0.00000   1.00000
 THIS MOLECULE IS AN ASYMMETRIC TOP.
 ROTATIONAL SYMMETRY NUMBER  1.
 ROTATIONAL TEMPERATURES (KELVIN)      0.46970     0.44873     0.22949
 ROTATIONAL CONSTANTS (GHZ)            9.78702     9.35010     4.78179
 Zero-point vibrational energy     190117.7 (Joules/Mol)
                                   45.43921 (Kcal/Mol)
 WARNING-- EXPLICIT CONSIDERATION OF   1 DEGREES OF FREEDOM AS
           VIBRATIONS MAY CAUSE SIGNIFICANT ERROR
 VIBRATIONAL TEMPERATURES:    769.00   923.86   988.14  1014.16  1125.09
          (KELVIN)           1199.09  1301.12  1358.38  1592.00  1625.58
                             1694.56  1730.68  1880.36  2024.88  2164.14
                             2221.89  2268.46  4805.59  4811.29  4848.24
                             5385.02

 Zero-point correction=                           0.072412 (Hartree/Particle)
 Thermal correction to Energy=                    0.076175
 Thermal correction to Enthalpy=                  0.077119
 Thermal correction to Gibbs Free Energy=         0.046141
 Sum of electronic and zero-point Energies=           -225.502745
 Sum of electronic and thermal Energies=              -225.498982
 Sum of electronic and thermal Enthalpies=            -225.498038
 Sum of electronic and thermal Free Energies=         -225.529016

                     E (Thermal)             CV                S
                      KCAL/MOL        CAL/MOL-KELVIN    CAL/MOL-KELVIN
 TOTAL                   47.801             13.365             65.198
 ELECTRONIC               0.000              0.000              0.000
 TRANSLATIONAL            0.889              2.981             38.570
 ROTATIONAL               0.889              2.981             24.111
 VIBRATIONAL             46.023              7.403              2.517
 VIBRATION  1             0.889              1.174              0.577
                       Q            LOG10(Q)             LN(Q)
 TOTAL BOT       0.597778D-21        -21.223460        -48.868822
 TOTAL V=0       0.121205D+13         12.083519         27.823331
 VIB (BOT)       0.653153D-33        -33.184985        -76.411252
 VIB (BOT)  1    0.297968D+00         -0.525830         -1.210768
 VIB (V=0)       0.132432D+01          0.121994          0.280901
 VIB (V=0)  1    0.108205D+01          0.034248          0.078860
 ELECTRONIC      0.100000D+01          0.000000          0.000000
 TRANSLATIONAL   0.220588D+08          7.343582         16.909224
 ROTATIONAL      0.414900D+05          4.617943         10.633207
 ***** Axes restored to original set *****
 -------------------------------------------------------------------
 Center     Atomic                   Forces (Hartrees/Bohr)
 Number     Number              X              Y              Z
 -------------------------------------------------------------------
    1          7           0.000187108    0.000000000    0.000029042
    2          1          -0.000013942    0.000000000   -0.000007107
    3          6           0.000197978    0.000000000   -0.000105870
    4          1          -0.000030977    0.000000000   -0.000001338
    5          6          -0.000220098    0.000000000   -0.000022424
    6          1           0.000007373    0.000000000    0.000035449
    7          1           0.000041731    0.000000000   -0.000010641
    8          6          -0.000185785    0.000000000   -0.000113905
    9          7           0.000016612    0.000000000    0.000196794
 -------------------------------------------------------------------
 Cartesian Forces:  Max     0.000220098 RMS     0.000091504

 GradGradGradGradGradGradGradGradGradGradGradGradGradGradGradGradGradGrad
 Berny optimization.
 Internal  Forces:  Max     0.000154175 RMS     0.000046746
 Search for a local minimum.
 Step number   1 out of a maximum of  48
 All quantities printed in internal units (Hartrees-Bohrs-Radians)
 Second derivative matrix not updated -- analytic derivatives used.
     Eigenvalues ---    0.00543   0.00973   0.01876   0.02700   0.05744
     Eigenvalues ---    0.06124   0.10080   0.10821   0.11392   0.12257
     Eigenvalues ---    0.23701   0.25910   0.36364   0.39032   0.39447
     Eigenvalues ---    0.39762   0.41577   0.47529   0.49455   0.50116
     Eigenvalues ---    0.576301000.000001000.000001000.000001000.00000
     Eigenvalues --- 1000.000001000.000001000.000001000.000001000.00000
     Eigenvalues --- 1000.000001000.000001000.000001000.000001000.00000
     Eigenvalues --- 1000.000001000.000001000.00000
 Angle between quadratic step and forces=  26.65 degrees.
 Linear search not attempted -- first point.
 Iteration  1 RMS(Cart)=  0.00012124 RMS(Int)=  0.00000002
 Iteration  2 RMS(Cart)=  0.00000002 RMS(Int)=  0.00000000
 Variable       Old X    -DE/DX   Delta X   Delta X   Delta X     New X
                                 (Linear)    (Quad)   (Total)
    R1        2.59754   0.00014   0.00000   0.00049   0.00049   2.59802
    R2        2.50077  -0.00001   0.00000  -0.00003  -0.00003   2.50074
    R3        1.90093   0.00000   0.00000   0.00001   0.00001   1.90094
    R4        2.03004   0.00003   0.00000   0.00007   0.00007   2.03011
    R5        2.60048   0.00003   0.00000   0.00005   0.00005   2.60054
    R6        2.59568  -0.00012   0.00000  -0.00031  -0.00031   2.59537
    R7        2.03296   0.00002   0.00000   0.00003   0.00003   2.03299
    R8        2.03363   0.00004   0.00000   0.00012   0.00012   2.03375
    R9        2.57844  -0.00015   0.00000  -0.00039  -0.00039   2.57805
    A1        1.83079  -0.00005   0.00000  -0.00013  -0.00013   1.83066
    A2        2.31761  -0.00003   0.00000  -0.00025  -0.00025   2.31736
    A3        2.13477   0.00001   0.00000   0.00014   0.00014   2.13491
    A4        1.83081   0.00002   0.00000   0.00011   0.00011   1.83092
    A5        1.93806  -0.00007   0.00000  -0.00023  -0.00023   1.93783
    A6        2.11828   0.00001   0.00000  -0.00023  -0.00023   2.11805
    A7        2.22685   0.00007   0.00000   0.00046   0.00046   2.22731
    A8        2.19949  -0.00002   0.00000  -0.00007  -0.00007   2.19943
    A9        1.94791   0.00004   0.00000   0.00013   0.00013   1.94805
   A10        2.13578  -0.00003   0.00000  -0.00007  -0.00007   2.13571
   A11        2.20165  -0.00004   0.00000  -0.00020  -0.00020   2.20145
   A12        2.20432  -0.00001   0.00000   0.00008   0.00008   2.20440
   A13        1.87721   0.00005   0.00000   0.00012   0.00012   1.87733
    D1        0.00000   0.00000   0.00000   0.00000   0.00000   0.00000
    D2        3.14159   0.00000   0.00000   0.00000   0.00000   3.14159
    D3        3.14159   0.00000   0.00000   0.00000   0.00000   3.14159
    D4        0.00000   0.00000   0.00000   0.00000   0.00000   0.00000
    D5        3.14159   0.00000   0.00000   0.00000   0.00000   3.14159
    D6        0.00000   0.00000   0.00000   0.00000   0.00000   0.00000
    D7        0.00000   0.00000   0.00000   0.00000   0.00000   0.00000
    D8        3.14159   0.00000   0.00000   0.00000   0.00000   3.14159
    D9        0.00000   0.00000   0.00000   0.00000   0.00000   0.00000
   D10        3.14159   0.00000   0.00000   0.00000   0.00000   3.14159
   D11        3.14159   0.00000   0.00000   0.00000   0.00000   3.14159
   D12        0.00000   0.00000   0.00000   0.00000   0.00000   0.00000
   D13        3.14159   0.00000   0.00000   0.00000   0.00000   3.14159
   D14        0.00000   0.00000   0.00000   0.00000   0.00000   0.00000
   D15        0.00000   0.00000   0.00000   0.00000   0.00000   0.00000
   D16        3.14159   0.00000   0.00000   0.00000   0.00000   3.14159
         Item               Value     Threshold  Converged?
 Maximum Force            0.000154     0.000450     YES
 RMS     Force            0.000047     0.000300     YES
 Maximum Displacement     0.000328     0.001800     YES
 RMS     Displacement     0.000121     0.001200     YES
 Predicted change in Energy=-1.300349D-07
 Optimization completed.
    -- Stationary point found.
                         ----------------------------
                         !   Optimized Parameters   !
                         ! (Angstroms and Degrees)  !
 ------------------------                            -------------------------
 ! Name  Definition              Value          Derivative Info.             !
 -----------------------------------------------------------------------------
 ! R1    R(1,5)                  1.3746         -DE/DX =    0.0001           !
 ! R2    R(1,8)                  1.3234         -DE/DX =    0.               !
 ! R3    R(2,9)                  1.0059         -DE/DX =    0.               !
 ! R4    R(3,4)                  1.0743         -DE/DX =    0.               !
 ! R5    R(3,5)                  1.3761         -DE/DX =    0.               !
 ! R6    R(3,9)                  1.3736         -DE/DX =   -0.0001           !
 ! R7    R(5,6)                  1.0758         -DE/DX =    0.               !
 ! R8    R(7,8)                  1.0762         -DE/DX =    0.               !
 ! R9    R(8,9)                  1.3645         -DE/DX =   -0.0002           !
 ! A1    A(5,1,8)              104.8963         -DE/DX =    0.               !
 ! A2    A(4,3,5)              132.7893         -DE/DX =    0.               !
 ! A3    A(4,3,9)              122.3132         -DE/DX =    0.               !
 ! A4    A(5,3,9)              104.8975         -DE/DX =    0.               !
 ! A5    A(1,5,3)              111.0425         -DE/DX =   -0.0001           !
 ! A6    A(1,5,6)              121.3683         -DE/DX =    0.               !
 ! A7    A(3,5,6)              127.5892         -DE/DX =    0.0001           !
 ! A8    A(1,8,7)              126.0217         -DE/DX =    0.               !
 ! A9    A(1,8,9)              111.6073         -DE/DX =    0.               !
 ! A10   A(7,8,9)              122.3711         -DE/DX =    0.               !
 ! A11   A(2,9,3)              126.1455         -DE/DX =    0.               !
 ! A12   A(2,9,8)              126.2981         -DE/DX =    0.               !
 ! A13   A(3,9,8)              107.5564         -DE/DX =    0.0001           !
 ! D1    D(8,1,5,3)              0.             -DE/DX =    0.               !
 ! D2    D(8,1,5,6)            180.             -DE/DX =    0.               !
 ! D3    D(5,1,8,7)            180.             -DE/DX =    0.               !
 ! D4    D(5,1,8,9)              0.             -DE/DX =    0.               !
 ! D5    D(4,3,5,1)            180.             -DE/DX =    0.               !
 ! D6    D(4,3,5,6)              0.             -DE/DX =    0.               !
 ! D7    D(9,3,5,1)              0.             -DE/DX =    0.               !
 ! D8    D(9,3,5,6)            180.             -DE/DX =    0.               !
 ! D9    D(4,3,9,2)              0.             -DE/DX =    0.               !
 ! D10   D(4,3,9,8)            180.             -DE/DX =    0.               !
 ! D11   D(5,3,9,2)            180.             -DE/DX =    0.               !
 ! D12   D(5,3,9,8)              0.             -DE/DX =    0.               !
 ! D13   D(1,8,9,2)            180.             -DE/DX =    0.               !
 ! D14   D(1,8,9,3)              0.             -DE/DX =    0.               !
 ! D15   D(7,8,9,2)              0.             -DE/DX =    0.               !
 ! D16   D(7,8,9,3)            180.             -DE/DX =    0.               !
 -----------------------------------------------------------------------------
 GradGradGradGradGradGradGradGradGradGradGradGradGradGradGradGradGradGrad

 1\1\ NATIONAL INSTITUTE OF STANDARDS AND TECHNOLOGY-NEVA\Freq\RMP2-FU\
 6-31G(d,p)\C3H4N2\RDJ3\14-Aug-2001\0\\#N GEOM=ALLCHECK GUESS=TCHECK RM
 P2(FULL)/6-31G(D,P) FREQ\\1H imidazole C3H4N2 casno=288324\\0,1\N,0.49
 64235384,0.,1.1346936916\H,0.4880773399,0.,-2.0520066093\C,-1.02027820
 62,0.,-0.5508577309\H,-1.8974055529,0.,-1.1710722034\C,-0.8400580145,0
 .,0.8134061127\H,-1.5992412342,0.,1.5756282858\H,2.1927943122,0.,-0.17
 17194682\C,1.1261175743,0.,-0.0292412034\N,0.2494460349,0.,-1.07478984
 52\\Version=SGI64-G98RevA.7\State=1-A'\HF=-224.8216639\MP2=-225.575157
 2\RMSD=7.991e-10\RMSF=9.150e-05\Dipole=-0.1335331,0.,-1.5151401\Dipole
 Deriv=-0.3364219,0.,0.0310631,0.,-0.3095485,0.,-0.0719108,0.,-0.549651
 2,0.1937264,0.,-0.0120204,0.,0.3434877,0.,-0.0083869,0.,0.2307208,0.05
 78139,0.,-0.1891245,0.,-0.1149936,0.,-0.0736003,0.,0.1634559,0.0274158
 ,0.,-0.0330486,0.,0.1739146,0.,-0.0579278,0.,0.0401929,0.1521733,0.,-0
 .0904021,0.,-0.1082129,0.,-0.0516203,0.,0.1140291,-0.0056835,0.,0.0583
 214,0.,0.1382679,0.,0.0690351,0.,0.0280327,-0.0193719,0.,0.0293977,0.,
 0.1497686,0.,0.035331,0.,0.0580549,0.1214714,0.,0.1050803,0.,-0.002459
 8,0.,0.094958,0.,0.538251,-0.1911235,0.,0.100733,0.,-0.270224,0.,0.064
 122,0.,-0.6230861\Polar=47.224738,0.,17.3824271,-0.9112913,0.,44.01420
 58\PG=CS [SG(C3H4N2)]\NImag=0\\0.52028069,0.,0.10173835,-0.05874297,0.
 ,0.56823813,-0.00303794,0.,-0.00861821,0.08442960,0.,0.00736040,0.,0.,
 0.01248006,-0.00382206,0.,-0.00283696,-0.10133084,0.,0.47274564,-0.033
 57464,0.,-0.01829275,0.00675093,0.,-0.00482684,0.79359970,0.,0.0141320
 4,0.,0.,-0.00842428,0.,0.,0.09425220,-0.08042064,0.,-0.01959563,0.0293
 8480,0.,-0.00099739,0.14908018,0.,0.76397410,0.00160949,0.,0.00162871,
 0.00037953,0.,-0.00014369,-0.27024743,0.,-0.14786355,0.28376049,0.,0.0
 0755352,0.,0.,-0.00116396,0.,0.,-0.01648933,0.,0.,0.01727481,-0.004307
 33,0.,-0.00553753,-0.00091753,0.,0.00016449,-0.15916213,0.,-0.17436479
 ,0.16168055,0.,0.16620196,-0.28556312,0.,-0.03453166,-0.00916009,0.,-0
 .00045108,-0.10026444,0.,-0.02204870,0.00548738,0.,-0.02233292,0.69864
 622,0.,-0.06583607,0.,0.,0.00305214,0.,0.,-0.05314777,0.,0.,-0.0044873
 0,0.,0.,0.12026080,-0.06032133,0.,-0.11098492,0.00351407,0.,0.00099021
 ,-0.02889001,0.,-0.39950393,0.00215771,0.,0.00323982,-0.15450497,0.,0.
 81583588,-0.01946738,0.,0.02158116,0.00088666,0.,-0.00002551,0.0087849
 3,0.,-0.00695343,-0.00018610,0.,0.00062697,-0.20684411,0.,0.15631114,0
 .22273818,0.,-0.00671370,0.,0.,0.00211388,0.,0.,-0.00317233,0.,0.,-0.0
 0157083,0.,0.,-0.02564572,0.,0.,0.02255285,-0.00847350,0.,0.01231953,0
 .00132883,0.,0.00027607,0.02135157,0.,-0.00715953,-0.00038786,0.,-0.00
 004179,0.15922573,0.,-0.22775243,-0.16775971,0.,0.22695328,-0.00747126
 ,0.,0.00201323,-0.00049375,0.,-0.00015811,0.00095580,0.,-0.00282779,-0
 .00030732,0.,0.00042555,0.00104595,0.,0.00213344,-0.00027873,0.,-0.000
 23836,0.38736977,0.,-0.00678970,0.,0.,-0.00119787,0.,0.,0.00295025,0.,
 0.,0.00210630,0.,0.,0.00681687,0.,0.,0.00134685,0.,0.,0.01975763,0.029
 94600,0.,0.00099500,0.00055403,0.,0.00042824,-0.00137271,0.,-0.0060674
 8,-0.00111520,0.,0.00110923,0.00329991,0.,-0.00482209,0.00150511,0.,0.
 00079075,-0.04221692,0.,0.06516302,-0.15870181,0.,0.10773373,0.0178538
 0,0.,0.01569651,-0.08839191,0.,0.00272537,-0.00302010,0.,0.00464704,-0
 .09047276,0.,0.01596648,-0.00619330,0.,-0.00407994,-0.36837082,0.,0.04
 049691,0.91829530,0.,-0.07273862,0.,0.,-0.00960781,0.,0.,0.01504176,0.
 ,0.,0.00307069,0.,0.,0.01014946,0.,0.,0.00557122,0.,0.,-0.02084072,0.,
 0.,0.12308500,0.15490051,0.,-0.34364731,-0.01778083,0.,-0.01009330,-0.
 03728442,0.,-0.01124300,0.00398802,0.,-0.00545730,0.06222142,0.,-0.007
 65567,-0.00199096,0.,0.00038490,0.03558674,0.,-0.06464262,-0.06812992,
 0.,0.67551323,-0.01407402,0.,-0.01277124,-0.09760875,0.,0.09506162,-0.
 31761293,0.,0.07892376,-0.01747594,0.,0.01933982,-0.01287503,0.,0.0636
 3347,0.00055985,0.,-0.00096675,-0.01244964,0.,-0.03109713,-0.22099840,
 0.,-0.13151056,0.69253486,0.,0.02129377,0.,0.,-0.00461256,0.,0.,-0.045
 14254,0.,0.,-0.00629390,0.,0.,0.00883758,0.,0.,0.00551779,0.,0.,-0.004
 14961,0.,0.,-0.05373099,0.,0.,0.07828044,0.03124133,0.,-0.09895029,0.0
 9386568,0.,-0.46067699,0.07939712,0.,-0.14504235,-0.01994468,0.,0.0146
 8591,0.00912228,0.,-0.06934688,-0.00329476,0.,-0.00577077,0.00528221,0
 .,0.00704595,-0.11505617,0.,-0.23315893,-0.08061301,0.,0.99121435\\-0.
 00018711,0.,-0.00002904,0.00001394,0.,0.00000711,-0.00019798,0.,0.0001
 0587,0.00003098,0.,0.00000134,0.00022010,0.,0.00002242,-0.00000737,0.,
 -0.00003545,-0.00004173,0.,0.00001064,0.00018578,0.,0.00011390,-0.0000
 1661,0.,-0.00019679\\\@

 IF AT FIRST YOU DON'T SUCCEED, TRY, TRY AGAIN.
 THEN GIVE UP;
 THERE'S NO USE BEING A DAMN FOOL ABOUT IT.

                                 -- W. C. FIELDS
 Job cpu time:  0 days  0 hours 43 minutes 39.7 seconds.
 File lengths (MBytes):  RWF=  566 Int=    0 D2E=    0 Chk=    5 Scr=    1
 Normal termination of Gaussian 98.
