 Gaussian 98, Revision A.4,
 Gaussian 98:  IBM-RS6000-G98RevA.4 11-Sep-1998

 ---------------------------
 #MP2=FULL/6-31+G** opt freq
 ---------------------------

 --------------------------------
 1H imidazole C3H4N2 casno=288324
 --------------------------------
 Symbolic Z-matrix:
 Charge =  0 Multiplicity = 1

 SCF Done:  E(RHF) =  -224.781629196     A.U. after   14 cycles
 E2 =    -0.7458934471D+00 EUMP2 =    -0.22552752264304D+03
 SCF Done:  E(RHF) =  -224.826906175     A.U. after   13 cycles
 E2 =    -0.7561075263D+00 EUMP2 =    -0.22558301370147D+03
 SCF Done:  E(RHF) =  -224.828932956     A.U. after   13 cycles
 E2 =    -0.7626100315D+00 EUMP2 =    -0.22559154298742D+03
 SCF Done:  E(RHF) =  -224.829450524     A.U. after   11 cycles
 E2 =    -0.7623100870D+00 EUMP2 =    -0.22559176061054D+03
 SCF Done:  E(RHF) =  -224.829749360     A.U. after   11 cycles
 E2 =    -0.7620696148D+00 EUMP2 =    -0.22559181897532D+03
 SCF Done:  E(RHF) =  -224.829888234     A.U. after   10 cycles
 E2 =    -0.7619361537D+00 EUMP2 =    -0.22559182438738D+03
 Optimization completed.
    -- Stationary point found.
 Normal termination of Gaussian 98.

 ---------------------------------------------------------
 #N Geom=AllCheck Guess=TCheck RMP2(Full)/6-31+G(d,p) Freq
 ---------------------------------------------------------

 1H imidazole C3H4N2 casno=288324
 --------------------------------
 Redundant internal coordinates taken from checkpointfile:
 /wrk/rdj3/Gau-4022.chk
 Charge =  0 Multiplicity = 1

                         Standard orientation:
 ---------------------------------------------------------------------
 Center     Atomic     Atomic              Coordinates (Angstroms)
 Number     Number      Type              X           Y           Z
 ---------------------------------------------------------------------
    1          7             0       -0.740109   -0.993182    0.000000
    2          1             0       -0.012418    2.112248    0.000000
    3          6             0        1.119811    0.305954    0.000000
    4          1             0        2.115678    0.710870    0.000000
    5          6             0        0.636142   -0.985204    0.000000
    6          1             0        1.201568   -1.900634    0.000000
    7          1             0       -2.100955    0.662109    0.000000
    8          6             0       -1.093137    0.284835    0.000000
    9          7             0        0.000000    1.104881    0.000000
 ---------------------------------------------------------------------

 SCF Done:  E(RHF) =  -224.829888234     A.U. after    1 cycles
 E2 =    -0.7619361538D+00 EUMP2 =    -0.22559182438751D+03

  The electronic state is 1-A'.
 Alpha  occ. eigenvalues --  -15.63661 -15.55757 -11.30454 -11.26990 -11.25024
 Alpha  occ. eigenvalues --   -1.34376  -1.16966  -1.00972  -0.83295  -0.80229
 Alpha  occ. eigenvalues --   -0.76146  -0.61125  -0.60656  -0.59744  -0.57274
 Alpha  occ. eigenvalues --   -0.43814  -0.40024  -0.32013
 Alpha virt. eigenvalues --    0.06321   0.08133   0.09663   0.09965   0.10955
 Alpha virt. eigenvalues --    0.11762   0.13445   0.14404   0.15562   0.15917
 Alpha virt. eigenvalues --    0.19293   0.19984   0.21240   0.22202   0.23594

  Exact polarizability:  53.291  -0.090  51.174   0.000   0.000  30.894
 Approx polarizability:  46.749   0.991  49.018   0.000   0.000  30.003

                     1                      2                      3
                    A"                     A"                     A"
 Frequencies --   486.3447               619.9721               669.4641
 Red. masses --     1.8883                 3.1043                 2.8047
 Frc consts  --     0.2632                 0.7030                 0.7406
 IR Inten    --    74.9388                33.9117                 0.0149
 Raman Activ --     0.0000                 0.0000                 0.0000

                     4                      5                      6
                    A"                     A"                     A"
 Frequencies --   692.3853               766.9038               813.9328
 Red. masses --     1.1849                 1.1964                 1.1833
 Frc consts  --     0.3347                 0.4146                 0.4619
 IR Inten    --    24.9603                61.6000                26.9853
 Raman Activ --     0.0000                 0.0000                 0.0000

                     7                      8                      9
                    A'                     A'                     A'
 Frequencies --   901.1919               940.2182              1099.0557
 Red. masses --     5.5942                 4.7908                 1.5666
 Frc consts  --     2.6768                 2.4953                 1.1150
 IR Inten    --     4.7750                 2.5114                29.6144
 Raman Activ --     0.0000                 0.0000                 0.0000

                    10                     11                     12
                    A'                     A'                     A'
 Frequencies --  1123.1086              1170.6712              1194.2314
 Red. masses --     1.4836                 1.5476                 3.9863
 Frc consts  --     1.1026                 1.2497                 3.3496
 IR Inten    --    26.8337                 3.6705                 2.7353
 Raman Activ --     0.0000                 0.0000                 0.0000

                    13                     14                     15
                    A'                     A'                     A'
 Frequencies --  1299.7166              1398.2727              1488.4190
 Red. masses --     1.4159                 2.9826                 3.8724
 Frc consts  --     1.4092                 3.4359                 5.0545
 IR Inten    --     1.0942                 8.6135                19.3512
 Raman Activ --     0.0000                 0.0000                 0.0000

                    16                     17                     18
                    A'                     A'                     A'
 Frequencies --  1527.0824              1562.9342              3337.7943
 Red. masses --     3.0943                 2.9758                 1.0918
 Frc consts  --     4.2514                 4.2829                 7.1665
 IR Inten    --    26.1880                 6.4412                 2.6386
 Raman Activ --     0.0000                 0.0000                 0.0000

                    19                     20                     21
                    A'                     A'                     A'
 Frequencies --  3344.9265              3363.1427              3726.4480
 Red. masses --     1.0968                 1.1056                 1.0826
 Frc consts  --     7.2303                 7.3677                 8.8573
 IR Inten    --     0.8581                 0.7862                77.3959
 Raman Activ --     0.0000                 0.0000                 0.0000

 - Thermochemistry -
 -------------------
 Temperature   298.150 Kelvin.  Pressure   1.00000 Atm.
 Atom  1 has atomic number  7 and mass  14.00307

 Molecular mass:    68.03745 amu.
 Principal axes and moments of inertia in atomic units:
                           1         2         3
     EIGENVALUES --   185.20312 193.36874 378.57186
           X            0.44126   0.89738   0.00000
           Y            0.89738  -0.44126   0.00000
           Z            0.00000   0.00000   1.00000
 THIS MOLECULE IS AN ASYMMETRIC TOP.
 ROTATIONAL SYMMETRY NUMBER  1.
 ROTATIONAL TEMPERATURES (KELVIN)      0.46767     0.44792     0.22879
 ROTATIONAL CONSTANTS (GHZ)            9.74466     9.33316     4.76724
 Zero-point vibrational energy     188568.7 (Joules/Mol)
                                   45.06899 (Kcal/Mol)
 WARNING-- EXPLICIT CONSIDERATION OF   2 DEGREES OF FREEDOM AS
           VIBRATIONS MAY CAUSE SIGNIFICANT ERROR
 VIBRATIONAL TEMPERATURES:    699.74   892.00   963.20   996.18  1103.40
          (KELVIN)           1171.06  1296.61  1352.76  1581.29  1615.89
                             1684.33  1718.22  1869.99  2011.79  2141.49
                             2197.12  2248.70  4802.31  4812.58  4838.78
                             5361.50

 Zero-point correction=                           0.071822 (Hartree/Particle)
 Thermal correction to Energy=                    0.075658
 Thermal correction to Enthalpy=                  0.076603
 Thermal correction to Gibbs Free Energy=         0.045512
 Sum of electronic and zero-point Energies=           -225.520002
 Sum of electronic and thermal Energies=              -225.516166
 Sum of electronic and thermal Enthalpies=            -225.515222
 Sum of electronic and thermal Free Energies=         -225.546312

                     E (Thermal)             CV                S
                      KCAL/MOL        CAL/MOL-KELVIN    CAL/MOL-KELVIN
 TOTAL                   47.476             13.681             65.436
 ELECTRONIC               0.000              0.000              0.000
 TRANSLATIONAL            0.889              2.981             38.570
 ROTATIONAL               0.889              2.981             24.120
 VIBRATIONAL             45.699              7.720              2.745
 VIBRATION  1             0.842              1.280              0.693
 VIBRATION  2             0.980              0.990              0.417
                       Q            LOG10(Q)             LN(Q)
 TOTAL BOT       0.116438D-20        -20.933905        -48.202097
 TOTAL V=0       0.126388D+13         12.101705         27.865205
 VIB (BOT)       0.126640D-32        -32.897428        -75.749127
 VIB (BOT)  1    0.342011D+00         -0.465960         -1.072913
 VIB (BOT)  2    0.235892D+00         -0.627288         -1.444383
 VIB (V=0)       0.137462D+01          0.138182          0.318175
 VIB (V=0)  1    0.110578D+01          0.043669          0.100552
 VIB (V=0)  2    0.105285D+01          0.022367          0.051502
 ELECTRONIC      0.100000D+01          0.000000          0.000000
 TRANSLATIONAL   0.220588D+08          7.343582         16.909224
 ROTATIONAL      0.416813D+05          4.619941         10.637807
 ***** Axes restored to original set *****
 -------------------------------------------------------------------
 Center     Atomic                   Forces (Hartrees/Bohr)
 Number     Number              X              Y              Z
 -------------------------------------------------------------------
    1          7           0.000191605    0.000000000    0.000018169
    2          1          -0.000014019    0.000000000   -0.000008026
    3          6           0.000202501    0.000000000   -0.000090612
    4          1          -0.000036422    0.000000000   -0.000008147
    5          6          -0.000211495    0.000000000   -0.000036341
    6          1          -0.000000031    0.000000000    0.000046531
    7          1           0.000052890    0.000000000   -0.000012154
    8          6          -0.000219193    0.000000000   -0.000113364
    9          7           0.000034164    0.000000000    0.000203943
 -------------------------------------------------------------------
 Cartesian Forces:  Max     0.000219193 RMS     0.000094816

 GradGradGradGradGradGradGradGradGradGradGradGradGradGradGradGradGradGrad
 Berny optimization.
 Internal  Forces:  Max     0.000170876 RMS     0.000048692
 Search for a local minimum.
 Step number   1 out of a maximum of  48
 All quantities printed in internal units (Hartrees-Bohrs-Radians)
 Second derivative matrix not updated -- analytic derivatives used.
     Eigenvalues ---    0.00451   0.00923   0.01817   0.02608   0.05391
     Eigenvalues ---    0.05805   0.10011   0.10741   0.11253   0.12088
     Eigenvalues ---    0.23693   0.25731   0.35801   0.38942   0.39352
     Eigenvalues ---    0.39565   0.40947   0.46698   0.48515   0.49607
     Eigenvalues ---    0.566451000.000001000.000001000.000001000.00000
     Eigenvalues --- 1000.000001000.000001000.000001000.000001000.00000
     Eigenvalues --- 1000.000001000.000001000.000001000.000001000.00000
     Eigenvalues --- 1000.000001000.000001000.00000
 Angle between quadratic step and forces=  26.56 degrees.
 Linear search not attempted -- first point.
 Iteration  1 RMS(Cart)=  0.00013150 RMS(Int)=  0.00000002
 Iteration  2 RMS(Cart)=  0.00000002 RMS(Int)=  0.00000000
 Variable       Old X    -DE/DX   Delta X   Delta X   Delta X     New X
                                 (Linear)    (Quad)   (Total)
    R1        2.60078   0.00014   0.00000   0.00049   0.00049   2.60127
    R2        2.50555  -0.00003   0.00000  -0.00005  -0.00005   2.50550
    R3        1.90379   0.00000   0.00000   0.00001   0.00001   1.90380
    R4        2.03153   0.00003   0.00000   0.00009   0.00009   2.03162
    R5        2.60551   0.00002   0.00000   0.00004   0.00004   2.60555
    R6        2.59950  -0.00011   0.00000  -0.00029  -0.00029   2.59920
    R7        2.03329   0.00003   0.00000   0.00006   0.00006   2.03336
    R8        2.03357   0.00005   0.00000   0.00015   0.00015   2.03372
    R9        2.58238  -0.00017   0.00000  -0.00044  -0.00044   2.58194
    A1        1.83451  -0.00005   0.00000  -0.00013  -0.00013   1.83438
    A2        2.31540  -0.00003   0.00000  -0.00023  -0.00023   2.31517
    A3        2.13572   0.00000   0.00000   0.00012   0.00012   2.13584
    A4        1.83207   0.00002   0.00000   0.00011   0.00011   1.83218
    A5        1.93501  -0.00008   0.00000  -0.00024  -0.00024   1.93477
    A6        2.11831   0.00000   0.00000  -0.00025  -0.00025   2.11806
    A7        2.22987   0.00007   0.00000   0.00049   0.00049   2.23036
    A8        2.19850  -0.00002   0.00000  -0.00008  -0.00008   2.19842
    A9        1.94490   0.00005   0.00000   0.00015   0.00015   1.94505
   A10        2.13978  -0.00003   0.00000  -0.00007  -0.00007   2.13971
   A11        2.20282  -0.00004   0.00000  -0.00021  -0.00021   2.20261
   A12        2.20208  -0.00001   0.00000   0.00010   0.00010   2.20218
   A13        1.87828   0.00005   0.00000   0.00011   0.00011   1.87840
    D1        0.00000   0.00000   0.00000   0.00000   0.00000   0.00000
    D2        3.14159   0.00000   0.00000   0.00000   0.00000   3.14159
    D3        3.14159   0.00000   0.00000   0.00000   0.00000   3.14159
    D4        0.00000   0.00000   0.00000   0.00000   0.00000   0.00000
    D5        3.14159   0.00000   0.00000   0.00000   0.00000   3.14159
    D6        0.00000   0.00000   0.00000   0.00000   0.00000   0.00000
    D7        0.00000   0.00000   0.00000   0.00000   0.00000   0.00000
    D8        3.14159   0.00000   0.00000   0.00000   0.00000   3.14159
    D9        0.00000   0.00000   0.00000   0.00000   0.00000   0.00000
   D10        3.14159   0.00000   0.00000   0.00000   0.00000   3.14159
   D11        3.14159   0.00000   0.00000   0.00000   0.00000   3.14159
   D12        0.00000   0.00000   0.00000   0.00000   0.00000   0.00000
   D13        3.14159   0.00000   0.00000   0.00000   0.00000   3.14159
   D14        0.00000   0.00000   0.00000   0.00000   0.00000   0.00000
   D15        0.00000   0.00000   0.00000   0.00000   0.00000   0.00000
   D16        3.14159   0.00000   0.00000   0.00000   0.00000   3.14159
         Item               Value     Threshold  Converged?
 Maximum Force            0.000171     0.000450     YES
 RMS     Force            0.000049     0.000300     YES
 Maximum Displacement     0.000365     0.001800     YES
 RMS     Displacement     0.000131     0.001200     YES
 Predicted change in Energy=-1.418081D-07
 Optimization completed.
    -- Stationary point found.
                         ----------------------------
                         !   Optimized Parameters   !
                         ! (Angstroms and Degrees)  !
 ------------------------                            -------------------------
 ! Name  Definition              Value          Derivative Info.             !
 -----------------------------------------------------------------------------
 ! R1    R(1,5)                  1.3763         -DE/DX =    0.0001           !
 ! R2    R(1,8)                  1.3259         -DE/DX =    0.               !
 ! R3    R(2,9)                  1.0074         -DE/DX =    0.               !
 ! R4    R(3,4)                  1.075          -DE/DX =    0.               !
 ! R5    R(3,5)                  1.3788         -DE/DX =    0.               !
 ! R6    R(3,9)                  1.3756         -DE/DX =   -0.0001           !
 ! R7    R(5,6)                  1.076          -DE/DX =    0.               !
 ! R8    R(7,8)                  1.0761         -DE/DX =    0.0001           !
 ! R9    R(8,9)                  1.3665         -DE/DX =   -0.0002           !
 ! A1    A(5,1,8)              105.1097         -DE/DX =    0.               !
 ! A2    A(4,3,5)              132.6625         -DE/DX =    0.               !
 ! A3    A(4,3,9)              122.3676         -DE/DX =    0.               !
 ! A4    A(5,3,9)              104.9699         -DE/DX =    0.               !
 ! A5    A(1,5,3)              110.8681         -DE/DX =   -0.0001           !
 ! A6    A(1,5,6)              121.37           -DE/DX =    0.               !
 ! A7    A(3,5,6)              127.7619         -DE/DX =    0.0001           !
 ! A8    A(1,8,7)              125.965          -DE/DX =    0.               !
 ! A9    A(1,8,9)              111.4346         -DE/DX =    0.               !
 ! A10   A(7,8,9)              122.6004         -DE/DX =    0.               !
 ! A11   A(2,9,3)              126.2122         -DE/DX =    0.               !
 ! A12   A(2,9,8)              126.1701         -DE/DX =    0.               !
 ! A13   A(3,9,8)              107.6177         -DE/DX =    0.0001           !
 ! D1    D(8,1,5,3)              0.             -DE/DX =    0.               !
 ! D2    D(8,1,5,6)            180.             -DE/DX =    0.               !
 ! D3    D(5,1,8,7)            180.             -DE/DX =    0.               !
 ! D4    D(5,1,8,9)              0.             -DE/DX =    0.               !
 ! D5    D(4,3,5,1)            180.             -DE/DX =    0.               !
 ! D6    D(4,3,5,6)              0.             -DE/DX =    0.               !
 ! D7    D(9,3,5,1)              0.             -DE/DX =    0.               !
 ! D8    D(9,3,5,6)            180.             -DE/DX =    0.               !
 ! D9    D(4,3,9,2)              0.             -DE/DX =    0.               !
 ! D10   D(4,3,9,8)            180.             -DE/DX =    0.               !
 ! D11   D(5,3,9,2)            180.             -DE/DX =    0.               !
 ! D12   D(5,3,9,8)              0.             -DE/DX =    0.               !
 ! D13   D(1,8,9,2)            180.             -DE/DX =    0.               !
 ! D14   D(1,8,9,3)              0.             -DE/DX =    0.               !
 ! D15   D(7,8,9,2)              0.             -DE/DX =    0.               !
 ! D16   D(7,8,9,3)            180.             -DE/DX =    0.               !
 -----------------------------------------------------------------------------
 GradGradGradGradGradGradGradGradGradGradGradGradGradGradGradGradGradGrad

 1\1\GINC-FERRUM\Freq\RMP2-FU\6-31+G(d,p)\C3H4N2\RDJ3\17-Apr-2000\0\\#N
  GEOM=ALLCHECK GUESS=TCHECK RMP2(FULL)/6-31+G(D,P) FREQ\\1H imidazole
 C3H4N2 casno=288324\\0,1\N,0.4962203353,0.,1.1348728741\H,0.4899743464
 ,0.,-2.0546709228\C,-1.0215559458,0.,-0.5513679775\H,-1.8999924994,0.,
 -1.1710920437\C,-0.8425410556,0.,0.8157374562\H,-1.6004148408,0.,1.579
 5084731\H,2.196276453,0.,-0.1696185884\C,1.1292346813,0.,-0.030137316\
 N,0.2499697307,0.,-1.076232859\\Version=IBM-RS6000-G98RevA.4\State=1-A
 '\HF=-224.8298882\MP2=-225.5918244\RMSD=1.165e-09\RMSF=9.482e-05\Dipol
 e=-0.1559813,0.,-1.579056\DipoleDeriv=-0.3148995,0.,0.0270022,0.,-0.30
 84731,0.,-0.0727393,0.,-0.5534999,0.1941417,0.,-0.0160369,0.,0.343712,
 0.,-0.010073,0.,0.235007,0.0384047,0.,-0.2280173,0.,-0.1631362,0.,-0.1
 239307,0.,0.1743608,0.0313281,0.,-0.0351424,0.,0.2145169,0.,-0.0581956
 ,0.,0.0412861,0.1682179,0.,-0.0067654,0.,-0.1540643,0.,-0.0255887,0.,0
 .1015393,0.0012871,0.,0.0460811,0.,0.1732915,0.,0.0684253,0.,0.0371986
 ,-0.0024192,0.,0.0324018,0.,0.1825319,0.,0.0297935,0.,0.0580908,0.0467
 645,0.,0.06117,0.,-0.0434741,0.,0.1288154,0.,0.6101929,-0.1628253,0.,0
 .1193069,0.,-0.2449047,0.,0.063493,0.,-0.7041755\Polar=53.2227056,0.,3
 0.8936388,0.3858724,0.,51.2430043\PG=CS [SG(C3H4N2)]\NImag=0\\0.514451
 60,0.,0.09652757,-0.05754492,0.,0.55999661,-0.00313093,0.,-0.00833774,
 0.08404590,0.,0.00735290,0.,0.,0.01107393,-0.00352189,0.,-0.00264959,-
 0.10071051,0.,0.46829092,-0.03311792,0.,-0.01963960,0.00662838,0.,-0.0
 0517315,0.78367405,0.,0.01288916,0.,0.,-0.00879007,0.,0.,0.08664861,-0
 .07874293,0.,-0.02004317,0.02908813,0.,-0.00050509,0.15171620,0.,0.752
 32986,0.00136870,0.,0.00178065,0.00032588,0.,-0.00011568,-0.26934032,0
 .,-0.14787157,0.28256191,0.,0.00745602,0.,0.,-0.00098727,0.,0.,-0.0153
 5173,0.,0.,0.01657226,-0.00425020,0.,-0.00533301,-0.00090607,0.,0.0001
 6303,-0.15909593,0.,-0.17314110,0.16101440,0.,0.16496170,-0.28248064,0
 .,-0.03232744,-0.00882282,0.,-0.00056882,-0.10011355,0.,-0.02158763,0.
 00579809,0.,-0.02178766,0.69177198,0.,-0.06179635,0.,0.,0.00284088,0.,
 0.,-0.04741562,0.,0.,-0.00483789,0.,0.,0.11189803,-0.05828632,0.,-0.11
 056347,0.00358737,0.,0.00100770,-0.02776013,0.,-0.39081454,0.00257789,
 0.,0.00307819,-0.15804908,0.,0.80499956,-0.01881666,0.,0.02173309,0.00
 085267,0.,-0.00004592,0.00896440,0.,-0.00728573,-0.00023570,0.,0.00065
 003,-0.20626142,0.,0.15663094,0.22175945,0.,-0.00673642,0.,0.,0.002042
 09,0.,0.,-0.00376637,0.,0.,-0.00141661,0.,0.,-0.02415252,0.,0.,0.02172
 972,-0.00904487,0.,0.01195106,0.00128834,0.,0.00026527,0.02078503,0.,-
 0.00685391,-0.00041515,0.,-0.00006978,0.16025322,0.,-0.22760074,-0.167
 83983,0.,0.22682901,-0.00685123,0.,0.00117987,-0.00051987,0.,-0.000212
 79,0.00074451,0.,-0.00251835,-0.00028381,0.,0.00041036,0.00087435,0.,0
 .00205734,-0.00028788,0.,-0.00024116,0.38764049,0.,-0.00680243,0.,0.,-
 0.00088378,0.,0.,0.00338668,0.,0.,0.00197486,0.,0.,0.00659794,0.,0.,0.
 00128817,0.,0.,0.01924114,0.02982014,0.,0.00087257,0.00051146,0.,0.000
 40193,-0.00148679,0.,-0.00608537,-0.00109560,0.,0.00109403,0.00342621,
 0.,-0.00490796,0.00150110,0.,0.00077765,-0.04164159,0.,0.06424991,-0.1
 5905676,0.,0.10658535,0.01731185,0.,0.01558345,-0.08721725,0.,0.000995
 04,-0.00317461,0.,0.00459006,-0.08760693,0.,0.01727809,-0.00640676,0.,
 -0.00406285,-0.36981607,0.,0.03989954,0.91351127,0.,-0.06818831,0.,0.,
 -0.01041549,0.,0.,0.01209649,0.,0.,0.00316104,0.,0.,0.00986365,0.,0.,0
 .00528662,0.,0.,-0.01984146,0.,0.,0.11459602,0.15166160,0.,-0.33565095
 ,-0.01811971,0.,-0.00938980,-0.03536031,0.,-0.01005919,0.00366232,0.,-
 0.00535025,0.05925615,0.,-0.00643425,-0.00174204,0.,0.00040366,0.03585
 680,0.,-0.06310346,-0.07022009,0.,0.65732689,-0.01236616,0.,-0.0134292
 6,-0.09669106,0.,0.09476532,-0.31022232,0.,0.07620685,-0.01702015,0.,0
 .01937500,-0.01315907,0.,0.06196391,0.00043189,0.,-0.00072272,-0.01150
 048,0.,-0.03093447,-0.21754474,0.,-0.12499471,0.67807208,0.,0.01929786
 ,0.,0.,-0.00223320,0.,0.,-0.03969716,0.,0.,-0.00657067,0.,0.,0.0070018
 8,0.,0.,0.00572532,0.,0.,-0.00496112,0.,0.,-0.04655857,0.,0.,0.0679956
 5,0.02990941,0.,-0.09858005,0.09359874,0.,-0.45758436,0.07601468,0.,-0
 .14482749,-0.01953726,0.,0.01459719,0.01138506,0.,-0.06876449,-0.00360
 165,0.,-0.00570223,0.00510952,0.,0.00670070,-0.11064860,0.,-0.22774265
 ,-0.08222991,0.,0.98190337\\-0.00019161,0.,-0.00001817,0.00001402,0.,0
 .00000803,-0.00020250,0.,0.00009061,0.00003642,0.,0.00000815,0.0002115
 0,0.,0.00003634,0.00000003,0.,-0.00004653,-0.00005289,0.,0.00001215,0.
 00021919,0.,0.00011336,-0.00003416,0.,-0.00020394\\\@

 LAWS OF PROGRAMMING DEFINITION:  A WORKING PROGRAM
                                  IS ONE THAT HAS
                                  ONLY UNOBSERVED
                                  BUGS.
 Job cpu time:  0 days  1 hours 17 minutes 32.7 seconds.
 File lengths (MBytes):  RWF= 1025 Int=    0 D2E=    0 Chk=    4 Scr=    1
 Normal termination of Gaussian 98.
