 Gaussian 98, Revision A.7,
 Gaussian 98:  SGI64-G98RevA.7 11-Apr-1999

 ------------------------
 #CCSD(T)/6-311+G(3df,2p)
 ------------------------

 ----------------------------------------
 1himidaz casno=288324 method=32 basis=10
 ----------------------------------------
 Symbolic Z-matrix:
 Charge =  0 Multiplicity = 1

                         Standard orientation:
 ---------------------------------------------------------------------
 Center     Atomic     Atomic              Coordinates (Angstroms)
 Number     Number      Type              X           Y           Z
 ---------------------------------------------------------------------
    1          7             0       -0.741190   -0.994251    0.000000
    2          1             0       -0.010094    2.116811    0.000000
    3          6             0        1.119682    0.305967    0.000000
    4          1             0        2.119194    0.714624    0.000000
    5          6             0        0.635741   -0.983793    0.000000
    6          1             0        1.202081   -1.905126    0.000000
    7          1             0       -2.104400    0.664365    0.000000
    8          6             0       -1.091831    0.283840    0.000000
    9          7             0        0.000000    1.104714    0.000000
 ---------------------------------------------------------------------

 SCF Done:  E(RHF) =  -224.891204810     A.U. after   13 cycles
 CCSD(T)= -0.22583107915D+03

  The electronic state is 1-A'.
 Alpha  occ. eigenvalues --  -15.62478 -15.54733 -11.29893 -11.26240 -11.24478
 Alpha  occ. eigenvalues --   -1.33953  -1.16622  -1.00584  -0.82917  -0.79946
 Alpha  occ. eigenvalues --   -0.75781  -0.60886  -0.60352  -0.59823  -0.56947
 Alpha  occ. eigenvalues --   -0.43952  -0.40132  -0.32006
 Alpha virt. eigenvalues --    0.05481   0.07310   0.08637   0.09842   0.10172
 Alpha virt. eigenvalues --    0.11150   0.13285   0.13511   0.14824   0.14881
 Alpha virt. eigenvalues --    0.18226   0.18256   0.19783   0.20406   0.22213

 5.7843196\CCSD(T)=-225.8310791\RMSD=9.535e-09\PG=CS [SG(C3H4N2)]\\@
 Normal termination of Gaussian 98.
