 Gaussian 98, Revision A.4,
 Gaussian 98:  IBM-RS6000-G98RevA.4 11-Sep-1998

 --------------------
 #MP2/6-31G* OPT FREQ
 --------------------

 --------------------------------
 1H imidazole C3H4N2 casno=288324
 --------------------------------
 Symbolic Z-matrix:
 Charge =  0 Multiplicity = 1

 SCF Done:  E(RHF) =  -224.814429221     A.U. after   15 cycles
 E2 =    -0.7017263384D+00 EUMP2 =    -0.22551615555984D+03
 SCF Done:  E(RHF) =  -224.811221934     A.U. after   12 cycles
 E2 =    -0.7079160897D+00 EUMP2 =    -0.22551913802356D+03
 SCF Done:  E(RHF) =  -224.811127237     A.U. after   10 cycles
 E2 =    -0.7080732500D+00 EUMP2 =    -0.22551920048722D+03
 SCF Done:  E(RHF) =  -224.811068457     A.U. after   10 cycles
 E2 =    -0.7081404293D+00 EUMP2 =    -0.22551920888585D+03
 Optimization completed.
    -- Stationary point found.
 Normal termination of Gaussian 98.

 ----------------------------------------------------
 #N Geom=AllCheck Guess=TCheck RMP2(FC)/6-31G(d) Freq
 ----------------------------------------------------

 1H imidazole C3H4N2 casno=288324
 --------------------------------
 Redundant internal coordinates taken from checkpointfile:
 /wrk/rdj3/Gau-53374.chk
 Charge =  0 Multiplicity = 1

                         Standard orientation:
 ---------------------------------------------------------------------
 Center     Atomic     Atomic              Coordinates (Angstroms)
 Number     Number      Type              X           Y           Z
 ---------------------------------------------------------------------
    1          7             0       -0.741190   -0.994251    0.000000
    2          1             0       -0.010094    2.116811    0.000000
    3          6             0        1.119682    0.305967    0.000000
    4          1             0        2.119194    0.714624    0.000000
    5          6             0        0.635741   -0.983793    0.000000
    6          1             0        1.202081   -1.905126    0.000000
    7          1             0       -2.104400    0.664365    0.000000
    8          6             0       -1.091831    0.283840    0.000000
    9          7             0        0.000000    1.104714    0.000000
 ---------------------------------------------------------------------

 SCF Done:  E(RHF) =  -224.811068457     A.U. after    1 cycles
 E2 =    -0.7081404258D+00 EUMP2 =    -0.22551920888232D+03

  The electronic state is 1-A'.
 Alpha  occ. eigenvalues --  -15.62678 -15.54476 -11.29531 -11.26032 -11.24027
 Alpha  occ. eigenvalues --   -1.33332  -1.15920  -0.99962  -0.82315  -0.79274
 Alpha  occ. eigenvalues --   -0.75205  -0.60203  -0.59798  -0.58986  -0.56256
 Alpha  occ. eigenvalues --   -0.42988  -0.39122  -0.31271
 Alpha virt. eigenvalues --    0.18767   0.21570   0.24228   0.28071   0.29639
 Alpha virt. eigenvalues --    0.31731   0.39671   0.40946   0.48817   0.51405
 Alpha virt. eigenvalues --    0.67437   0.71757   0.76928   0.80291   0.81083

  Exact polarizability:  46.609  -1.515  44.517   0.000   0.000  17.145
 Approx polarizability:  42.844   0.648  45.465   0.000   0.000  19.179

                     1                      2                      3
                    A"                     A"                     A"
 Frequencies --   518.1602               636.2385               682.6688
 Red. masses --     1.8505                 2.9231                 1.7528
 Frc consts  --     0.2927                 0.6972                 0.4813
 IR Inten    --    86.2916                38.4372                 4.5512
 Raman Activ --     0.0000                 0.0000                 0.0000

                     4                      5                      6
                    A"                     A"                     A"
 Frequencies --   687.9877               765.0792               812.8051
 Red. masses --     1.5469                 1.2519                 1.1997
 Frc consts  --     0.4314                 0.4318                 0.4670
 IR Inten    --     7.0377                42.2677                22.5596
 Raman Activ --     0.0000                 0.0000                 0.0000

                     7                      8                      9
                    A'                     A'                     A'
 Frequencies --   903.9765               943.8758              1105.3937
 Red. masses --     5.5693                 4.8077                 1.5446
 Frc consts  --     2.6814                 2.5236                 1.1120
 IR Inten    --     7.3920                 1.9356                26.8504
 Raman Activ --     0.0000                 0.0000                 0.0000

                    10                     11                     12
                    A'                     A'                     A'
 Frequencies --  1128.1830              1177.8945              1199.8466
 Red. masses --     1.4589                 1.4989                 4.1577
 Frc consts  --     1.0941                 1.2253                 3.5266
 IR Inten    --    23.4720                 2.8761                 3.4141
 Raman Activ --     0.0000                 0.0000                 0.0000

                    13                     14                     15
                    A'                     A'                     A'
 Frequencies --  1300.4003              1398.7079              1494.5568
 Red. masses --     1.3950                 3.0307                 3.9329
 Frc consts  --     1.3899                 3.4934                 5.1759
 IR Inten    --     0.9444                11.1686                20.5080
 Raman Activ --     0.0000                 0.0000                 0.0000

                    16                     17                     18
                    A'                     A'                     A'
 Frequencies --  1534.7972              1567.9472              3308.0377
 Red. masses --     3.2469                 3.1412                 1.0923
 Frc consts  --     4.5064                 4.5500                 7.0424
 IR Inten    --    18.7095                 8.5473                 3.9650
 Raman Activ --     0.0000                 0.0000                 0.0000

                    19                     20                     21
                    A'                     A'                     A'
 Frequencies --  3312.9271              3335.6222              3671.5735
 Red. masses --     1.0971                 1.1052                 1.0824
 Frc consts  --     7.0946                 7.2454                 8.5971
 IR Inten    --     1.0529                 0.9427                71.6756
 Raman Activ --     0.0000                 0.0000                 0.0000

 - Thermochemistry -
 -------------------
 Temperature   298.150 Kelvin.  Pressure   1.00000 Atm.
 Atom  1 has atomic number  7 and mass  14.00307

 Molecular mass:    68.03745 amu.
 Principal axes and moments of inertia in atomic units:
                           1         2         3
     EIGENVALUES --   185.07775 193.63225 378.71000
           X            0.45211   0.89196   0.00000
           Y            0.89196  -0.45211   0.00000
           Z            0.00000   0.00000   1.00000
 THIS MOLECULE IS AN ASYMMETRIC TOP.
 ROTATIONAL SYMMETRY NUMBER  1.
 ROTATIONAL TEMPERATURES (KELVIN)      0.46798     0.44731     0.22871
 ROTATIONAL CONSTANTS (GHZ)            9.75126     9.32046     4.76550
 Zero-point vibrational energy     188332.2 (Joules/Mol)
                                   45.01247 (Kcal/Mol)
 WARNING-- EXPLICIT CONSIDERATION OF   1 DEGREES OF FREEDOM AS
           VIBRATIONS MAY CAUSE SIGNIFICANT ERROR
 VIBRATIONAL TEMPERATURES:    745.51   915.40   982.20   989.86  1100.77
          (KELVIN)           1169.44  1300.61  1358.02  1590.41  1623.19
                             1694.72  1726.30  1870.98  2012.42  2150.32
                             2208.22  2255.91  4759.50  4766.54  4799.19
                             5282.54

 Zero-point correction=                           0.071732 (Hartree/Particle)
 Thermal correction to Energy=                    0.075530
 Thermal correction to Enthalpy=                  0.076474
 Thermal correction to Gibbs Free Energy=         0.045441
 Sum of electronic and zero-point Energies=           -225.447477
 Sum of electronic and thermal Energies=              -225.443679
 Sum of electronic and thermal Enthalpies=            -225.442734
 Sum of electronic and thermal Free Energies=         -225.473767

                     E (Thermal)             CV                S
                      KCAL/MOL        CAL/MOL-KELVIN    CAL/MOL-KELVIN
 TOTAL                   47.396             13.533             65.314
 ELECTRONIC               0.000              0.000              0.000
 TRANSLATIONAL            0.889              2.981             38.570
 ROTATIONAL               0.889              2.981             24.121
 VIBRATIONAL             45.618              7.571              2.623
 VIBRATION  1             0.873              1.210              0.614
                       Q            LOG10(Q)             LN(Q)
 TOTAL BOT       0.125467D-20        -20.901470        -48.127413
 TOTAL V=0       0.123797D+13         12.092710         27.844494
 VIB (BOT)       0.136389D-32        -32.865221        -75.674968
 VIB (BOT)  1    0.312041D+00         -0.505789         -1.164622
 VIB (V=0)       0.134573D+01          0.128959          0.296939
 VIB (V=0)  1    0.108938D+01          0.037180          0.085609
 ELECTRONIC      0.100000D+01          0.000000          0.000000
 TRANSLATIONAL   0.220588D+08          7.343582         16.909224
 ROTATIONAL      0.417031D+05          4.620169         10.638332
 ***** Axes restored to original set *****
 -------------------------------------------------------------------
 Center     Atomic                   Forces (Hartrees/Bohr)
 Number     Number              X              Y              Z
 -------------------------------------------------------------------
    1          7           0.000186737    0.000000000   -0.000252352
    2          1          -0.000002152    0.000000000    0.000070800
    3          6          -0.000365124    0.000000000   -0.000098191
    4          1          -0.000096018    0.000000000   -0.000033114
    5          6           0.000232524    0.000000000    0.000058420
    6          1          -0.000078031    0.000000000   -0.000031400
    7          1           0.000130869    0.000000000    0.000085972
    8          6          -0.000196284    0.000000000    0.000074706
    9          7           0.000187481    0.000000000    0.000125160
 -------------------------------------------------------------------
 Cartesian Forces:  Max     0.000365124 RMS     0.000127779

 GradGradGradGradGradGradGradGradGradGradGradGradGradGradGradGradGradGrad
 Berny optimization.
 Internal  Forces:  Max     0.000287880 RMS     0.000089169
 Search for a local minimum.
 Step number   1 out of a maximum of  48
 All quantities printed in internal units (Hartrees-Bohrs-Radians)
 Second derivative matrix not updated -- analytic derivatives used.
     Eigenvalues ---    0.00508   0.00915   0.01815   0.02642   0.05721
     Eigenvalues ---    0.06111   0.10122   0.10768   0.11385   0.12219
     Eigenvalues ---    0.23711   0.25912   0.36226   0.38390   0.38709
     Eigenvalues ---    0.38985   0.41390   0.47099   0.48385   0.49462
     Eigenvalues ---    0.573561000.000001000.000001000.000001000.00000
     Eigenvalues --- 1000.000001000.000001000.000001000.000001000.00000
     Eigenvalues --- 1000.000001000.000001000.000001000.000001000.00000
     Eigenvalues --- 1000.000001000.000001000.00000
 Angle between quadratic step and forces=  32.66 degrees.
 Linear search not attempted -- first point.
 Iteration  1 RMS(Cart)=  0.00036020 RMS(Int)=  0.00000010
 Iteration  2 RMS(Cart)=  0.00000011 RMS(Int)=  0.00000002
 Variable       Old X    -DE/DX   Delta X   Delta X   Delta X     New X
                                 (Linear)    (Quad)   (Total)
    R1        2.60210   0.00004   0.00000  -0.00010  -0.00010   2.60200
    R2        2.50449  -0.00029   0.00000  -0.00047  -0.00047   2.50402
    R3        1.91268  -0.00007   0.00000  -0.00013  -0.00013   1.91255
    R4        2.04058   0.00010   0.00000   0.00021   0.00021   2.04078
    R5        2.60322   0.00005   0.00000   0.00024   0.00024   2.60346
    R6        2.59910   0.00020   0.00000   0.00057   0.00057   2.59967
    R7        2.04370   0.00003   0.00000   0.00011   0.00011   2.04381
    R8        2.04413   0.00012   0.00000   0.00031   0.00031   2.04444
    R9        2.58135  -0.00002   0.00000  -0.00021  -0.00021   2.58114
    A1        1.83096   0.00006   0.00000   0.00005   0.00005   1.83101
    A2        2.31788   0.00009   0.00000   0.00023   0.00023   2.31811
    A3        2.13383   0.00014   0.00000   0.00045   0.00045   2.13428
    A4        1.83148  -0.00023   0.00000  -0.00069  -0.00069   1.83079
    A5        1.93735   0.00007   0.00000   0.00032   0.00032   1.93768
    A6        2.11436   0.00004   0.00000   0.00056   0.00056   2.11492
    A7        2.23148  -0.00012   0.00000  -0.00089  -0.00089   2.23059
    A8        2.19803  -0.00010   0.00000  -0.00078  -0.00078   2.19725
    A9        1.94771  -0.00001   0.00000   0.00000   0.00000   1.94771
   A10        2.13745   0.00011   0.00000   0.00078   0.00078   2.13822
   A11        2.20041  -0.00004   0.00000  -0.00002  -0.00002   2.20039
   A12        2.20550  -0.00007   0.00000  -0.00030  -0.00030   2.20520
   A13        1.87728   0.00011   0.00000   0.00031   0.00031   1.87759
    D1        0.00000   0.00000   0.00000   0.00000   0.00000   0.00000
    D2        3.14159   0.00000   0.00000   0.00000   0.00000   3.14159
    D3        3.14159   0.00000   0.00000   0.00000   0.00000   3.14159
    D4        0.00000   0.00000   0.00000   0.00000   0.00000   0.00000
    D5        3.14159   0.00000   0.00000   0.00000   0.00000   3.14159
    D6        0.00000   0.00000   0.00000   0.00000   0.00000   0.00000
    D7        0.00000   0.00000   0.00000   0.00000   0.00000   0.00000
    D8        3.14159   0.00000   0.00000   0.00000   0.00000   3.14159
    D9        0.00000   0.00000   0.00000   0.00000   0.00000   0.00000
   D10        3.14159   0.00000   0.00000   0.00000   0.00000   3.14159
   D11        3.14159   0.00000   0.00000   0.00000   0.00000   3.14159
   D12        0.00000   0.00000   0.00000   0.00000   0.00000   0.00000
   D13        3.14159   0.00000   0.00000   0.00000   0.00000   3.14159
   D14        0.00000   0.00000   0.00000   0.00000   0.00000   0.00000
   D15        0.00000   0.00000   0.00000   0.00000   0.00000   0.00000
   D16        3.14159   0.00000   0.00000   0.00000   0.00000   3.14159
         Item               Value     Threshold  Converged?
 Maximum Force            0.000288     0.000450     YES
 RMS     Force            0.000089     0.000300     YES
 Maximum Displacement     0.001232     0.001800     YES
 RMS     Displacement     0.000360     0.001200     YES
 Predicted change in Energy=-4.712102D-07
 Optimization completed.
    -- Stationary point found.
                         ----------------------------
                         !   Optimized Parameters   !
                         ! (Angstroms and Degrees)  !
 ------------------------                            -------------------------
 ! Name  Definition              Value          Derivative Info.             !
 -----------------------------------------------------------------------------
 ! R1    R(1,5)                  1.377          -DE/DX =    0.               !
 ! R2    R(1,8)                  1.3253         -DE/DX =   -0.0003           !
 ! R3    R(2,9)                  1.0121         -DE/DX =   -0.0001           !
 ! R4    R(3,4)                  1.0798         -DE/DX =    0.0001           !
 ! R5    R(3,5)                  1.3776         -DE/DX =    0.               !
 ! R6    R(3,9)                  1.3754         -DE/DX =    0.0002           !
 ! R7    R(5,6)                  1.0815         -DE/DX =    0.               !
 ! R8    R(7,8)                  1.0817         -DE/DX =    0.0001           !
 ! R9    R(8,9)                  1.366          -DE/DX =    0.               !
 ! A1    A(5,1,8)              104.9064         -DE/DX =    0.0001           !
 ! A2    A(4,3,5)              132.8045         -DE/DX =    0.0001           !
 ! A3    A(4,3,9)              122.2595         -DE/DX =    0.0001           !
 ! A4    A(5,3,9)              104.936          -DE/DX =   -0.0002           !
 ! A5    A(1,5,3)              111.0021         -DE/DX =    0.0001           !
 ! A6    A(1,5,6)              121.1437         -DE/DX =    0.               !
 ! A7    A(3,5,6)              127.8542         -DE/DX =   -0.0001           !
 ! A8    A(1,8,7)              125.9378         -DE/DX =   -0.0001           !
 ! A9    A(1,8,9)              111.5955         -DE/DX =    0.               !
 ! A10   A(7,8,9)              122.4667         -DE/DX =    0.0001           !
 ! A11   A(2,9,3)              126.0744         -DE/DX =    0.               !
 ! A12   A(2,9,8)              126.3656         -DE/DX =   -0.0001           !
 ! A13   A(3,9,8)              107.56           -DE/DX =    0.0001           !
 ! D1    D(8,1,5,3)              0.             -DE/DX =    0.               !
 ! D2    D(8,1,5,6)            180.             -DE/DX =    0.               !
 ! D3    D(5,1,8,7)            180.             -DE/DX =    0.               !
 ! D4    D(5,1,8,9)              0.             -DE/DX =    0.               !
 ! D5    D(4,3,5,1)            180.             -DE/DX =    0.               !
 ! D6    D(4,3,5,6)              0.             -DE/DX =    0.               !
 ! D7    D(9,3,5,1)              0.             -DE/DX =    0.               !
 ! D8    D(9,3,5,6)            180.             -DE/DX =    0.               !
 ! D9    D(4,3,9,2)              0.             -DE/DX =    0.               !
 ! D10   D(4,3,9,8)            180.             -DE/DX =    0.               !
 ! D11   D(5,3,9,2)            180.             -DE/DX =    0.               !
 ! D12   D(5,3,9,8)              0.             -DE/DX =    0.               !
 ! D13   D(1,8,9,2)            180.             -DE/DX =    0.               !
 ! D14   D(1,8,9,3)              0.             -DE/DX =    0.               !
 ! D15   D(7,8,9,2)              0.             -DE/DX =    0.               !
 ! D16   D(7,8,9,3)            180.             -DE/DX =    0.               !
 -----------------------------------------------------------------------------
 GradGradGradGradGradGradGradGradGradGradGradGradGradGradGradGradGradGrad

 1\1\GINC-QUANTUM\Freq\RMP2-FC\6-31G(d)\C3H4N2\RDJ3\18-Dec-1998\0\\#N G
 EOM=ALLCHECK GUESS=TCHECK RMP2(FC)/6-31G(D) FREQ\\1H imidazole C3H4N2
 casno=288324\\0,1\N,0.4967991937,0.,1.136260327\H,0.4891631854,0.,-2.0
 595409337\C,-1.0213147428,0.,-0.5515601285\H,-1.9023281356,0.,-1.17593
 21832\C,-0.8419984641,0.,0.8142817492\H,-1.6022543024,0.,1.5834410842\
 H,2.2001769208,0.,-0.1705869548\C,1.1277440337,0.,-0.0292329909\N,0.25
 01518593,0.,-1.0760192973\\Version=IBM-RS6000-G98RevA.4\State=1-A'\HF=
 -224.8110685\MP2=-225.5192089\RMSD=1.466e-09\RMSF=1.278e-04\Dipole=-0.
 1383311,0.,-1.5353014\DipoleDeriv=-0.3435367,0.,0.0323383,0.,-0.311087
 7,0.,-0.071015,0.,-0.5526046,0.1994462,0.,-0.0116079,0.,0.3557143,0.,-
 0.0074196,0.,0.2317974,0.0572167,0.,-0.1801968,0.,-0.1181271,0.,-0.069
 0248,0.,0.1565174,0.0318895,0.,-0.0365857,0.,0.181012,0.,-0.0606014,0.
 ,0.0458759,0.1475348,0.,-0.094671,0.,-0.1161181,0.,-0.0555625,0.,0.108
 4745,0.0008799,0.,0.0587288,0.,0.1458512,0.,0.0717672,0.,0.0345711,-0.
 0165616,0.,0.0320503,0.,0.1563572,0.,0.0352588,0.,0.0662881,0.1240276,
 0.,0.1020745,0.,-0.0041086,0.,0.0954391,0.,0.5286078,-0.2008963,0.,0.0
 978695,0.,-0.2894932,0.,0.0611581,0.,-0.6195276\Polar=47.1704158,0.,17
 .1447159,-0.8983761,0.,43.9561318\PG=CS [SG(C3H4N2)]\NImag=0\\0.516562
 38,0.,0.10152127,-0.05819263,0.,0.56485759,-0.00311371,0.,-0.00848189,
 0.08255962,0.,0.00738197,0.,0.,0.01193077,-0.00372719,0.,-0.00296504,-
 0.09677916,0.,0.45522940,-0.03347809,0.,-0.01822832,0.00610242,0.,-0.0
 0423060,0.78466100,0.,0.01396789,0.,0.,-0.00877409,0.,0.,0.09017731,-0
 .08011264,0.,-0.01978074,0.02926311,0.,-0.00073010,0.14708920,0.,0.758
 25150,0.00146807,0.,0.00160450,0.00012479,0.,-0.00012040,-0.26382787,0
 .,-0.14526040,0.27769779,0.,0.00755600,0.,0.,-0.00100545,0.,0.,-0.0147
 5971,0.,0.,0.01630784,-0.00428262,0.,-0.00550723,-0.00078321,0.,0.0001
 2776,-0.15626150,0.,-0.17110781,0.15835402,0.,0.16374933,-0.28243943,0
 .,-0.03333946,-0.00917101,0.,-0.00043054,-0.09996005,0.,-0.02226649,0.
 00567807,0.,-0.02192025,0.68848417,0.,-0.06550299,0.,0.,0.00299206,0.,
 0.,-0.05102735,0.,0.,-0.00522416,0.,0.,0.11685006,-0.05925480,0.,-0.11
 079983,0.00352780,0.,0.00069497,-0.02815565,0.,-0.39698197,0.00238299,
 0.,0.00262670,-0.15285511,0.,0.81050660,-0.01947574,0.,0.02133842,0.00
 089798,0.,-0.00004152,0.00884108,0.,-0.00709154,-0.00028286,0.,0.00051
 919,-0.20083577,0.,0.15310469,0.21713394,0.,-0.00675164,0.,0.,0.002116
 53,0.,0.,-0.00383298,0.,0.,-0.00129298,0.,0.,-0.02403785,0.,0.,0.02161
 569,-0.00882768,0.,0.01236473,0.00130865,0.,0.00030805,0.02068884,0.,-
 0.00752935,-0.00028966,0.,-0.00016800,0.15623073,0.,-0.22463724,-0.164
 24508,0.,0.22440752,-0.00688288,0.,0.00165395,-0.00064637,0.,-0.000228
 97,0.00066565,0.,-0.00278158,-0.00028946,0.,0.00044144,0.00062945,0.,0
 .00221290,-0.00026945,0.,-0.00025581,0.38035975,0.,-0.00687183,0.,0.,-
 0.00103328,0.,0.,0.00291714,0.,0.,0.00207692,0.,0.,0.00666725,0.,0.,0.
 00132150,0.,0.,0.01893282,0.02978416,0.,0.00062145,0.00038940,0.,0.000
 27020,-0.00144848,0.,-0.00591208,-0.00110635,0.,0.00107824,0.00330600,
 0.,-0.00481538,0.00150712,0.,0.00077283,-0.04062009,0.,0.06417559,-0.1
 5875921,0.,0.10654478,0.01752857,0.,0.01467625,-0.08801121,0.,0.002784
 46,-0.00325898,0.,0.00449421,-0.08949641,0.,0.01545462,-0.00647551,0.,
 -0.00370071,-0.36165661,0.,0.03913080,0.91012108,0.,-0.07238551,0.,0.,
 -0.01001374,0.,0.,0.01505752,0.,0.,0.00297696,0.,0.,0.01057687,0.,0.,0
 .00541849,0.,0.,-0.01952808,0.,0.,0.12029842,0.15373070,0.,-0.34001586
 ,-0.01798582,0.,-0.01020938,-0.03717868,0.,-0.01123694,0.00378198,0.,-
 0.00534021,0.06185630,0.,-0.00767755,-0.00188058,0.,0.00035273,0.03456
 264,0.,-0.06284884,-0.06638353,0.,0.66897791,-0.01388138,0.,-0.0128993
 5,-0.09428229,0.,0.09088212,-0.31499292,0.,0.07837589,-0.01730955,0.,0
 .01943872,-0.01288901,0.,0.06358256,0.00046633,0.,-0.00090928,-0.01191
 007,0.,-0.03094257,-0.21999173,0.,-0.13050302,0.68479063,0.,0.02108484
 ,0.,0.,-0.00359477,0.,0.,-0.04372573,0.,0.,-0.00663542,0.,0.,0.0087061
 0,0.,0.,0.00544322,0.,0.,-0.00448244,0.,0.,-0.05240093,0.,0.,0.0756051
 3,0.03088270,0.,-0.09877508,0.08954112,0.,-0.44272587,0.07772519,0.,-0
 .14497251,-0.01934667,0.,0.01454123,0.00941880,0.,-0.06891629,-0.00321
 072,0.,-0.00587127,0.00501552,0.,0.00665798,-0.11300088,0.,-0.23200186
 ,-0.07702507,0.,0.97206367\\-0.00018674,0.,0.00025235,0.00000215,0.,-0
 .00007080,0.00036512,0.,0.00009819,0.00009602,0.,0.00003311,-0.0002325
 2,0.,-0.00005842,0.00007803,0.,0.00003140,-0.00013087,0.,-0.00008597,0
 .00019628,0.,-0.00007471,-0.00018748,0.,-0.00012516\\\@

 THE WISE MAN HAS THE POWER TO REASON AWAY
 WHAT A FOOL BELIEVES.
                     - DOOBIE BROTHERS
 Job cpu time:  0 days  0 hours 21 minutes 48.5 seconds.
 File lengths (MBytes):  RWF=  382 Int=    0 D2E=    0 Chk=    3 Scr=    1
 Normal termination of Gaussian 98.
