 Gaussian 98, Revision A.6,
 Gaussian 98:  IBM-RS6000-G98RevA.6 19-Oct-1998

 --------------------------
 #MP2/6-31G(2df,p) opt freq
 --------------------------

 ---------------------------------------
 1himidaz casno=288324 method=3 basis=19
 ---------------------------------------
 Symbolic Z-matrix:
 Charge =  0 Multiplicity = 1

 SCF Done:  E(RHF) =  -224.839708753     A.U. after   14 cycles
 E2 =    -0.8354339559D+00 EUMP2 =    -0.22567514270914D+03
 SCF Done:  E(RHF) =  -224.837129188     A.U. after   11 cycles
 E2 =    -0.8401159860D+00 EUMP2 =    -0.22567724517435D+03
 SCF Done:  E(RHF) =  -224.836824574     A.U. after   10 cycles
 E2 =    -0.8404935605D+00 EUMP2 =    -0.22567731813443D+03
 SCF Done:  E(RHF) =  -224.836739715     A.U. after    9 cycles
 E2 =    -0.8405882633D+00 EUMP2 =    -0.22567732797847D+03
 Optimization completed.
    -- Stationary point found.
 Normal termination of Gaussian 98.

 --------------------------------------------------------
 #N Geom=AllCheck Guess=TCheck RMP2(FC)/6-31G(2df,p) Freq
 --------------------------------------------------------

 1himidaz casno=288324 method=3 basis=19
 ---------------------------------------
 Redundant internal coordinates taken from checkpointfile:
 /wrk/rdj3/Gau-22034.chk
 Charge =  0 Multiplicity = 1

                         Standard orientation:
 ---------------------------------------------------------------------
 Center     Atomic     Atomic              Coordinates (Angstroms)
 Number     Number      Type              X           Y           Z
 ---------------------------------------------------------------------
    1          7             0       -0.739599   -0.992532    0.000000
    2          1             0       -0.011039    2.108171    0.000000
    3          6             0        1.116433    0.306451    0.000000
    4          1             0        2.110555    0.718119    0.000000
    5          6             0        0.633737   -0.982992    0.000000
    6          1             0        1.200060   -1.899979    0.000000
    7          1             0       -2.095562    0.666525    0.000000
    8          6             0       -1.087974    0.283372    0.000000
    9          7             0        0.000000    1.101986    0.000000
 ---------------------------------------------------------------------

 SCF Done:  E(RHF) =  -224.836739715     A.U. after    1 cycles
 E2 =    -0.8405882569D+00 EUMP2 =    -0.22567732797205D+03

  The electronic state is 1-A'.
 Alpha  occ. eigenvalues --  -15.62049 -15.54106 -11.29297 -11.25715 -11.23938
 Alpha  occ. eigenvalues --   -1.33184  -1.15774  -0.99686  -0.82106  -0.79108
 Alpha  occ. eigenvalues --   -0.74986  -0.59882  -0.59424  -0.59073  -0.55973
 Alpha  occ. eigenvalues --   -0.42820  -0.39132  -0.31067
 Alpha virt. eigenvalues --    0.18958   0.21715   0.24183   0.28171   0.29545
 Alpha virt. eigenvalues --    0.31556   0.38470   0.40070   0.44700   0.47685
 Alpha virt. eigenvalues --    0.58404   0.64252   0.67773   0.71117   0.72430

  Exact polarizability:  48.298  -1.550  45.865   0.000   0.000  20.783
 Approx polarizability:  45.250   0.324  47.040   0.000   0.000  24.256

                     1                      2                      3
                    A"                     A"                     A"
 Frequencies --   557.5727               653.5719               690.7353
 Red. masses --     1.7660                 2.4961                 2.7859
 Frc consts  --     0.3235                 0.6282                 0.7831
 IR Inten    --    78.0095                24.8688                 0.0041
 Raman Activ --     0.0000                 0.0000                 0.0000

                     4                      5                      6
                    A"                     A"                     A"
 Frequencies --   725.4335               799.7759               853.0617
 Red. masses --     1.2139                 1.2635                 1.2639
 Frc consts  --     0.3764                 0.4762                 0.5419
 IR Inten    --    15.4454                35.1174                 9.9914
 Raman Activ --     0.0000                 0.0000                 0.0000

                     7                      8                      9
                    A'                     A'                     A'
 Frequencies --   897.4508               936.9708              1093.2924
 Red. masses --     5.4388                 4.5777                 1.5432
 Frc consts  --     2.5809                 2.3678                 1.0868
 IR Inten    --     8.3834                 1.4667                22.2701
 Raman Activ --     0.0000                 0.0000                 0.0000

                    10                     11                     12
                    A'                     A'                     A'
 Frequencies --  1114.4523              1162.5019              1194.4837
 Red. masses --     1.4521                 1.4313                 4.8949
 Frc consts  --     1.0626                 1.1396                 4.1149
 IR Inten    --    24.5047                 2.4107                 3.5181
 Raman Activ --     0.0000                 0.0000                 0.0000

                    13                     14                     15
                    A'                     A'                     A'
 Frequencies --  1283.8625              1376.3218              1473.9870
 Red. masses --     1.3910                 3.1296                 4.1566
 Frc consts  --     1.3509                 3.4929                 5.3207
 IR Inten    --     0.7986                 8.8182                15.8670
 Raman Activ --     0.0000                 0.0000                 0.0000

                    16                     17                     18
                    A'                     A'                     A'
 Frequencies --  1515.7505              1542.4567              3309.8283
 Red. masses --     3.2620                 3.0606                 1.0913
 Frc consts  --     4.4156                 4.2903                 7.0436
 IR Inten    --    17.8321                 9.1341                 2.2231
 Raman Activ --     0.0000                 0.0000                 0.0000

                    19                     20                     21
                    A'                     A'                     A'
 Frequencies --  3313.1823              3338.1117              3710.9031
 Red. masses --     1.0966                 1.1054                 1.0821
 Frc consts  --     7.0922                 7.2569                 8.7797
 IR Inten    --     0.5008                 0.3459                79.6721
 Raman Activ --     0.0000                 0.0000                 0.0000

 - Thermochemistry -
 -------------------
 Temperature   298.150 Kelvin.  Pressure   1.00000 Atm.
 Atom  1 has atomic number  7 and mass  14.00307

 Molecular mass:    68.03745 amu.
 Principal axes and moments of inertia in atomic units:
                           1         2         3
     EIGENVALUES --   183.94859 192.86888 376.81748
           X            0.43617   0.89986   0.00000
           Y            0.89986  -0.43617   0.00000
           Z            0.00000   0.00000   1.00000
 THIS MOLECULE IS AN ASYMMETRIC TOP.
 ROTATIONAL SYMMETRY NUMBER  1.
 ROTATIONAL TEMPERATURES (KELVIN)      0.47086     0.44908     0.22986
 ROTATIONAL CONSTANTS (GHZ)            9.81112     9.35735     4.78943
 Zero-point vibrational energy     188673.3 (Joules/Mol)
                                   45.09400 (Kcal/Mol)
 WARNING-- EXPLICIT CONSIDERATION OF   1 DEGREES OF FREEDOM AS
           VIBRATIONS MAY CAUSE SIGNIFICANT ERROR
 VIBRATIONAL TEMPERATURES:    802.22   940.34   993.81  1043.73  1150.69
          (KELVIN)           1227.36  1291.22  1348.08  1572.99  1603.44
                             1672.57  1718.59  1847.18  1980.21  2120.73
                             2180.81  2219.24  4762.08  4766.90  4802.77
                             5339.13

 Zero-point correction=                           0.071862 (Hartree/Particle)
 Thermal correction to Energy=                    0.075596
 Thermal correction to Enthalpy=                  0.076540
 Thermal correction to Gibbs Free Energy=         0.045609
 Sum of electronic and zero-point Energies=           -225.605466
 Sum of electronic and thermal Energies=              -225.601732
 Sum of electronic and thermal Enthalpies=            -225.600788
 Sum of electronic and thermal Free Energies=         -225.631719

                     E (Thermal)             CV                S
                      KCAL/MOL        CAL/MOL-KELVIN    CAL/MOL-KELVIN
 TOTAL                   47.437             13.289             65.100
 ELECTRONIC               0.000              0.000              0.000
 TRANSLATIONAL            0.889              2.981             38.570
 ROTATIONAL               0.889              2.981             24.107
 VIBRATIONAL             45.660              7.327              2.423
 VIBRATION  1             0.913              1.123              0.529
                       Q            LOG10(Q)             LN(Q)
 TOTAL BOT       0.105078D-20        -20.978487        -48.304752
 TOTAL V=0       0.118973D+13         12.075450         27.804751
 VIB (BOT)       0.115090D-32        -32.938964        -75.844768
 VIB (BOT)  1    0.279409D+00         -0.553760         -1.275079
 VIB (V=0)       0.130309D+01          0.114973          0.264736
 VIB (V=0)  1    0.107277D+01          0.030508          0.070247
 ELECTRONIC      0.100000D+01          0.000000          0.000000
 TRANSLATIONAL   0.220588D+08          7.343582         16.909224
 ROTATIONAL      0.413899D+05          4.616894         10.630792
 ***** Axes restored to original set *****
 -------------------------------------------------------------------
 Center     Atomic                   Forces (Hartrees/Bohr)
 Number     Number              X              Y              Z
 -------------------------------------------------------------------
    1          7           0.000048243    0.000457420    0.000000000
    2          1          -0.000040923   -0.000108014    0.000000000
    3          6           0.000331497   -0.000160501    0.000000000
    4          1           0.000056756   -0.000034100    0.000000000
    5          6          -0.000235825    0.000053511    0.000000000
    6          1           0.000088137    0.000044921    0.000000000
    7          1          -0.000107174   -0.000083572    0.000000000
    8          6           0.000158132   -0.000041102    0.000000000
    9          7          -0.000298844   -0.000128562    0.000000000
 -------------------------------------------------------------------
 Cartesian Forces:  Max     0.000457420 RMS     0.000147095

 GradGradGradGradGradGradGradGradGradGradGradGradGradGradGradGradGradGrad
 Berny optimization.
 Internal  Forces:  Max     0.000356523 RMS     0.000107279
 Search for a local minimum.
 Step number   1 out of a maximum of  48
 All quantities printed in internal units (Hartrees-Bohrs-Radians)
 Second derivative matrix not updated -- analytic derivatives used.
     Eigenvalues ---    0.00595   0.01036   0.01952   0.02786   0.05956
     Eigenvalues ---    0.06234   0.09666   0.10392   0.10936   0.11820
     Eigenvalues ---    0.23067   0.25366   0.35554   0.38269   0.38728
     Eigenvalues ---    0.39026   0.40314   0.46834   0.48372   0.49261
     Eigenvalues ---    0.564671000.000001000.000001000.000001000.00000
     Eigenvalues --- 1000.000001000.000001000.000001000.000001000.00000
     Eigenvalues --- 1000.000001000.000001000.000001000.000001000.00000
     Eigenvalues --- 1000.000001000.000001000.00000
 Angle between quadratic step and forces=  35.88 degrees.
 Linear search not attempted -- first point.
 Iteration  1 RMS(Cart)=  0.00045261 RMS(Int)=  0.00000015
 Iteration  2 RMS(Cart)=  0.00000017 RMS(Int)=  0.00000002
 Variable       Old X    -DE/DX   Delta X   Delta X   Delta X     New X
                                 (Linear)    (Quad)   (Total)
    R1        2.59529  -0.00007   0.00000  -0.00039  -0.00039   2.59490
    R2        2.49937  -0.00036   0.00000  -0.00060  -0.00060   2.49876
    R3        1.90153  -0.00011   0.00000  -0.00020  -0.00020   1.90133
    R4        2.03332   0.00004   0.00000   0.00006   0.00006   2.03338
    R5        2.60183  -0.00015   0.00000  -0.00013  -0.00013   2.60170
    R6        2.59058   0.00025   0.00000   0.00066   0.00066   2.59123
    R7        2.03669   0.00001   0.00000   0.00005   0.00005   2.03673
    R8        2.03709   0.00007   0.00000   0.00017   0.00017   2.03726
    R9        2.57296  -0.00017   0.00000  -0.00046  -0.00046   2.57249
    A1        1.83039   0.00017   0.00000   0.00033   0.00033   1.83072
    A2        2.32160   0.00004   0.00000   0.00003   0.00003   2.32162
    A3        2.12988   0.00015   0.00000   0.00057   0.00057   2.13045
    A4        1.83171  -0.00020   0.00000  -0.00060  -0.00060   1.83112
    A5        1.93594   0.00002   0.00000   0.00017   0.00017   1.93611
    A6        2.11710   0.00009   0.00000   0.00085   0.00085   2.11795
    A7        2.23014  -0.00011   0.00000  -0.00102  -0.00102   2.22913
    A8        2.20072  -0.00007   0.00000  -0.00087  -0.00087   2.19986
    A9        1.94930  -0.00009   0.00000  -0.00019  -0.00019   1.94911
   A10        2.13316   0.00016   0.00000   0.00106   0.00106   2.13422
   A11        2.20088  -0.00001   0.00000   0.00016   0.00016   2.20104
   A12        2.20487  -0.00009   0.00000  -0.00045  -0.00045   2.20442
   A13        1.87743   0.00010   0.00000   0.00030   0.00030   1.87773
    D1        0.00000   0.00000   0.00000   0.00000   0.00000   0.00000
    D2        3.14159   0.00000   0.00000   0.00000   0.00000   3.14159
    D3        3.14159   0.00000   0.00000   0.00000   0.00000   3.14159
    D4        0.00000   0.00000   0.00000   0.00000   0.00000   0.00000
    D5        3.14159   0.00000   0.00000   0.00000   0.00000   3.14159
    D6        0.00000   0.00000   0.00000   0.00000   0.00000   0.00000
    D7        0.00000   0.00000   0.00000   0.00000   0.00000   0.00000
    D8        3.14159   0.00000   0.00000   0.00000   0.00000   3.14159
    D9        0.00000   0.00000   0.00000   0.00000   0.00000   0.00000
   D10        3.14159   0.00000   0.00000   0.00000   0.00000   3.14159
   D11        3.14159   0.00000   0.00000   0.00000   0.00000   3.14159
   D12        0.00000   0.00000   0.00000   0.00000   0.00000   0.00000
   D13        3.14159   0.00000   0.00000   0.00000   0.00000   3.14159
   D14        0.00000   0.00000   0.00000   0.00000   0.00000   0.00000
   D15        0.00000   0.00000   0.00000   0.00000   0.00000   0.00000
   D16        3.14159   0.00000   0.00000   0.00000   0.00000   3.14159
         Item               Value     Threshold  Converged?
 Maximum Force            0.000357     0.000450     YES
 RMS     Force            0.000107     0.000300     YES
 Maximum Displacement     0.001155     0.001800     YES
 RMS     Displacement     0.000453     0.001200     YES
 Predicted change in Energy=-6.596867D-07
 Optimization completed.
    -- Stationary point found.
                         ----------------------------
                         !   Optimized Parameters   !
                         ! (Angstroms and Degrees)  !
 ------------------------                            -------------------------
 ! Name  Definition              Value          Derivative Info.             !
 -----------------------------------------------------------------------------
 ! R1    R(1,5)                  1.3734         -DE/DX =   -0.0001           !
 ! R2    R(1,8)                  1.3226         -DE/DX =   -0.0004           !
 ! R3    R(2,9)                  1.0062         -DE/DX =   -0.0001           !
 ! R4    R(3,4)                  1.076          -DE/DX =    0.               !
 ! R5    R(3,5)                  1.3768         -DE/DX =   -0.0002           !
 ! R6    R(3,9)                  1.3709         -DE/DX =    0.0003           !
 ! R7    R(5,6)                  1.0778         -DE/DX =    0.               !
 ! R8    R(7,8)                  1.078          -DE/DX =    0.0001           !
 ! R9    R(8,9)                  1.3615         -DE/DX =   -0.0002           !
 ! A1    A(5,1,8)              104.8739         -DE/DX =    0.0002           !
 ! A2    A(4,3,5)              133.0176         -DE/DX =    0.               !
 ! A3    A(4,3,9)              122.033          -DE/DX =    0.0002           !
 ! A4    A(5,3,9)              104.9493         -DE/DX =   -0.0002           !
 ! A5    A(1,5,3)              110.9211         -DE/DX =    0.               !
 ! A6    A(1,5,6)              121.3011         -DE/DX =    0.0001           !
 ! A7    A(3,5,6)              127.7778         -DE/DX =   -0.0001           !
 ! A8    A(1,8,7)              126.0921         -DE/DX =   -0.0001           !
 ! A9    A(1,8,9)              111.6867         -DE/DX =   -0.0001           !
 ! A10   A(7,8,9)              122.2212         -DE/DX =    0.0002           !
 ! A11   A(2,9,3)              126.1011         -DE/DX =    0.               !
 ! A12   A(2,9,8)              126.33           -DE/DX =   -0.0001           !
 ! A13   A(3,9,8)              107.569          -DE/DX =    0.0001           !
 ! D1    D(8,1,5,3)              0.             -DE/DX =    0.               !
 ! D2    D(8,1,5,6)            180.             -DE/DX =    0.               !
 ! D3    D(5,1,8,7)            180.             -DE/DX =    0.               !
 ! D4    D(5,1,8,9)              0.             -DE/DX =    0.               !
 ! D5    D(4,3,5,1)            180.             -DE/DX =    0.               !
 ! D6    D(4,3,5,6)              0.             -DE/DX =    0.               !
 ! D7    D(9,3,5,1)              0.             -DE/DX =    0.               !
 ! D8    D(9,3,5,6)            180.             -DE/DX =    0.               !
 ! D9    D(4,3,9,2)              0.             -DE/DX =    0.               !
 ! D10   D(4,3,9,8)            180.             -DE/DX =    0.               !
 ! D11   D(5,3,9,2)            180.             -DE/DX =    0.               !
 ! D12   D(5,3,9,8)              0.             -DE/DX =    0.               !
 ! D13   D(1,8,9,2)            180.             -DE/DX =    0.               !
 ! D14   D(1,8,9,3)              0.             -DE/DX =    0.               !
 ! D15   D(7,8,9,2)              0.             -DE/DX =    0.               !
 ! D16   D(7,8,9,3)            180.             -DE/DX =    0.               !
 -----------------------------------------------------------------------------
 GradGradGradGradGradGradGradGradGradGradGradGradGradGradGradGradGradGrad

 1\1\GINC-AURUM\Freq\RMP2-FC\6-31G(2df,p)\C3H4N2\RDJ3\17-May-2004\0\\#N
  GEOM=ALLCHECK GUESS=TCHECK RMP2(FC)/6-31G(2DF,P) FREQ\\1himidaz casno
 =288324 method=3 basis=19\\0,1\N,-0.7439480359,-0.9892760359,0.\H,-0.0
 017855903,2.108198695,0.\C,1.117767449,0.3015478984,0.\H,2.1136864696,
 0.7088478226,0.\C,0.6294161399,-0.9857640654,0.\H,1.1917089163,-1.9052
 277828,0.\H,-2.092615841,0.675716117,0.\C,-1.0867196309,0.2881442609,0
 .\N,0.0048369354,1.101975548,0.\\Version=IBM-RS6000-G98RevA.6\State=1-
 A'\HF=-224.8367397\MP2=-225.677328\RMSD=2.185e-09\RMSF=1.471e-04\Dipol
 e=0.4658243,1.4114295,0.\DipoleDeriv=-0.3554489,-0.0368566,0.,-0.12628
 67,-0.5235338,0.,0.,0.,-0.307077,0.184649,-0.0026624,0.,-0.0001012,0.2
 50562,0.,0.,0.,0.3182409,-0.007492,-0.1552988,0.,-0.0272875,0.1876462,
 0.,0.,0.,-0.1170789,0.0261889,-0.0193088,0.,-0.0464606,0.0636602,0.,0.
 ,0.,0.1668351,0.0947297,-0.0664586,0.,-0.0389015,0.1400694,0.,0.,0.,-0
 .1024354,0.0347525,0.0467398,0.,0.0677499,0.0203903,0.,0.,0.,0.133285,
 0.0230345,0.0420404,0.,0.0429369,0.0463822,0.,0.,0.,0.1448868,0.158875
 1,0.1954843,0.,0.1793119,0.4341178,0.,0.,0.,-0.0062544,-0.1592888,-0.0
 036793,0.,-0.0509612,-0.6192943,0.,0.,0.,-0.2304021\Polar=48.2844665,-
 1.5609093,45.8789704,0.,0.,20.7826002\PG=CS [SG(C3H4N2)]\NImag=0\\0.48
 329078,-0.03878021,0.57459730,0.,0.,0.10399221,-0.00555968,-0.00759646
 ,0.,0.05720260,-0.00317526,0.00014417,0.,-0.00323798,0.48918495,0.,0.,
 0.00731811,0.,0.,0.01293085,-0.05496905,-0.00964174,0.,0.01033753,-0.0
 0772611,0.,0.83884745,-0.07137138,0.00138320,0.,0.02617988,-0.00638871
 ,0.,0.12413217,0.67398791,0.,0.,0.01614494,0.,0.,-0.00747090,0.,0.,0.1
 0408677,0.00067718,-0.00001311,0.,0.00011624,-0.00015716,0.,-0.3256675
 1,-0.11056520,0.,0.34205909,-0.00565491,-0.00446592,0.,-0.00086021,0.0
 0043226,0.,-0.12133029,-0.10794589,0.,0.11750305,0.09837169,0.,0.,0.00
 724972,0.,0.,-0.00137638,0.,0.,-0.01904062,0.,0.,0.01816856,-0.2880771
 2,0.00977701,0.,-0.00779879,0.00174436,0.,-0.11920697,-0.08110435,0.,0
 .00060235,-0.02089927,0.,0.61496091,-0.01401953,-0.09561359,0.,0.00540
 679,-0.00005520,0.,-0.09014589,-0.35545679,0.,0.00413748,0.00752000,0.
 ,-0.11717419,0.85441940,0.,0.,-0.06882656,0.,0.,0.00270476,0.,0.,-0.05
 983236,0.,0.,-0.00340872,0.,0.,0.12834887,-0.01473847,0.02775174,0.,0.
 00117373,-0.00022505,0.,0.00970095,-0.01160565,0.,-0.00011587,0.000537
 79,0.,-0.13171965,0.13330100,0.,0.14350980,-0.00299191,0.00684068,0.,0
 .00109933,0.00002600,0.,0.01674275,-0.00893328,0.,-0.00027364,-0.00010
 330,0.,0.13621467,-0.29200224,0.,-0.14671030,0.29683513,0.,0.,-0.00613
 003,0.,0.,0.00211698,0.,0.,-0.00226202,0.,0.,-0.00156696,0.,0.,-0.0275
 5459,0.,0.,0.02316289,-0.00024332,0.00067091,0.,-0.00039614,0.00003986
 ,0.,-0.00037159,-0.00437690,0.,-0.00039115,0.00077049,0.,0.00188233,0.
 00088392,0.,0.00008110,-0.00005132,0.,0.34433688,0.02951795,-0.0064094
 9,0.,0.00071785,0.00031517,0.,-0.00275430,-0.00455715,0.,-0.00073628,0
 .00116129,0.,0.00159382,-0.00576149,0.,0.00162844,0.00044887,0.,-0.108
 83537,0.09884812,0.,0.,-0.00636246,0.,0.,-0.00136608,0.,0.,0.00281166,
 0.,0.,0.00212055,0.,0.,0.00692521,0.,0.,0.00131867,0.,0.,0.02039172,-0
 .10482105,0.04949545,0.,0.01431180,0.00941598,0.,-0.09389224,0.0220741
 4,0.,-0.00124516,0.00368302,0.,-0.07094400,0.03040363,0.,-0.00715992,-
 0.00178265,0.,-0.32799310,0.10381555,0.,0.85990244,0.09584740,-0.37836
 215,0.,-0.02370345,-0.00844268,0.,-0.01762192,-0.00846976,0.,0.0031197
 1,-0.00709759,0.,0.07741825,-0.03026514,0.,-0.00034677,0.00128329,0.,0
 .09941905,-0.09476693,0.,-0.11408729,0.69806458,0.,0.,-0.07471184,0.,0
 .,-0.00892023,0.,0.,0.01637228,0.,0.,0.00302138,0.,0.,0.00966585,0.,0.
 ,0.00578643,0.,0.,-0.02250242,0.,0.,0.12897298,-0.01555927,-0.03166358
 ,0.,-0.06938730,0.00332138,0.,-0.26477857,0.10663730,0.,-0.01603517,0.
 02625032,0.,0.00030093,0.04720680,0.,-0.00073167,-0.00224692,0.,-0.016
 90500,-0.02494766,0.,-0.26815877,-0.12004497,0.,0.65125481,0.01062786,
 -0.09811420,0.,0.00199426,-0.47521597,0.,0.10834532,-0.18361954,0.,-0.
 01301484,0.01212746,0.,-0.00757029,-0.08278495,0.,-0.00433119,-0.00439
 515,0.,0.01147936,0.01072159,0.,-0.10301781,-0.17194363,0.,-0.00451267
 ,0.99322440,0.,0.,0.02132591,0.,0.,-0.00593710,0.,0.,-0.05080975,0.,0.
 ,-0.00516753,0.,0.,0.01197753,0.,0.,0.00512864,0.,0.,-0.00333683,0.,0.
 ,-0.05768442,0.,0.,0.08450355\\-0.00004824,-0.00045742,0.,0.00004092,0
 .00010801,0.,-0.00033150,0.00016050,0.,-0.00005676,0.00003410,0.,0.000
 23582,-0.00005351,0.,-0.00008814,-0.00004492,0.,0.00010717,0.00008357,
 0.,-0.00015813,0.00004110,0.,0.00029884,0.00012856,0.\\\@

 IF I AM NOT FOR MYSELF, WHO WILL BE?
 BUT IF I AM ONLY FOR MYSELF, WHAT AM I?
 THOUGH A SEEKER SINCE MY BIRTH,
 HERE IS ALL I'VE LEARNED ON EARTH,
 THIS IS THE GIST OF WHAT I KNOW:
 GIVE ADVICE AND BUY A FOE.

 PRESSED FOR RULES AND VERITIES,
 ALL I RECOLLECT ARE THESE:
 FEED A COLD TO STARVE A FEVER,
 ARGUE WITH NO TRUE-BELIEVER.
 THINK-TOO-LONG IS NEVER-ACT,
 SCRATCH A MYTH AND FIND A FACT.

 STITCH IN TIME SAVES TWENTY STITCHES,
 GIVE THE RICH TO PLEASE THEM, RICHES.
 GIVE TO LOVE YOU HEARTH AND HALL,
 BUT DO NOT GIVE ADVICE AT ALL.

                                  -- HILLEL
 Job cpu time:  0 days  4 hours 15 minutes 36.4 seconds.
 File lengths (MBytes):  RWF= 3162 Int=    0 D2E=    0 Chk=    5 Scr=    1
 Normal termination of Gaussian 98.
