 Gaussian 98, Revision A.6,
 Gaussian 98:  IBM-RS6000-G98RevA.6 19-Oct-1998

 -----------------------
 #MP2/CEP-121G* opt freq
 -----------------------

 --------------------------------
 1H imidazole C3H4N2 casno=288324
 --------------------------------
 Symbolic Z-matrix:
 Charge =  0 Multiplicity = 1

 SCF Done:  E(RHF) =  -38.0876145272     A.U. after   14 cycles
 E2 =    -0.6940567040D+00 EUMP2 =    -0.38781671231245D+02
 SCF Done:  E(RHF) =  -38.1376798438     A.U. after   13 cycles
 E2 =    -0.7068467597D+00 EUMP2 =    -0.38844526603536D+02
 SCF Done:  E(RHF) =  -38.1402613472     A.U. after   13 cycles
 E2 =    -0.7173500633D+00 EUMP2 =    -0.38857611410505D+02
 SCF Done:  E(RHF) =  -38.1409583146     A.U. after   11 cycles
 E2 =    -0.7169179600D+00 EUMP2 =    -0.38857876274639D+02
 SCF Done:  E(RHF) =  -38.1413129429     A.U. after   11 cycles
 E2 =    -0.7166359733D+00 EUMP2 =    -0.38857948916135D+02
 SCF Done:  E(RHF) =  -38.1415020734     A.U. after   10 cycles
 E2 =    -0.7164565140D+00 EUMP2 =    -0.38857958587358D+02
 Optimization completed.
    -- Stationary point found.
 Normal termination of Gaussian 98.

 -------------------------------------------------------
 #N Geom=AllCheck Guess=TCheck RMP2(FC)/CEP-121G(d) Freq
 -------------------------------------------------------

 1H imidazole C3H4N2 casno=288324
 --------------------------------
 Redundant internal coordinates taken from checkpointfile:
 /wrk/rdj3/Gau-15286.chk
 Charge =  0 Multiplicity = 1

                         Standard orientation:
 ---------------------------------------------------------------------
 Center     Atomic     Atomic              Coordinates (Angstroms)
 Number     Number      Type              X           Y           Z
 ---------------------------------------------------------------------
    1          7             0       -0.758095   -1.019422    0.000000
    2          1             0       -0.003213    2.105132    0.000000
    3          6             0        1.124698    0.281600    0.000000
    4          1             0        2.127601    0.686551    0.000000
    5          6             0        0.628261   -1.016741    0.000000
    6          1             0        1.188918   -1.943145    0.000000
    7          1             0       -2.116843    0.654765    0.000000
    8          6             0       -1.104456    0.269956    0.000000
    9          7             0        0.000000    1.090909    0.000000
 ---------------------------------------------------------------------

 SCF Done:  E(RHF) =  -38.1415020734     A.U. after    1 cycles
 E2 =    -0.7164565136D+00 EUMP2 =    -0.38857958586935D+02

  The electronic state is 1-A'.
 Alpha  occ. eigenvalues --   -1.34156  -1.16972  -1.00933  -0.83174  -0.79967
 Alpha  occ. eigenvalues --   -0.75669  -0.60625  -0.60332  -0.59087  -0.56816
 Alpha  occ. eigenvalues --   -0.43543  -0.39596  -0.31598
 Alpha virt. eigenvalues --    0.13102   0.16315   0.17849   0.18522   0.20078
 Alpha virt. eigenvalues --    0.21143   0.27681   0.30948   0.34080   0.35167
 Alpha virt. eigenvalues --    0.45847   0.46256   0.46421   0.50116   0.50188

  Exact polarizability:  51.041  -1.181  48.346   0.000   0.000  25.281
 Approx polarizability:  45.716   0.697  47.595   0.000   0.000  26.892

                     1                      2                      3
                    A"                     A"                     A"
 Frequencies --   498.9603               612.5879               657.4440
 Red. masses --     1.9025                 2.8380                 1.2219
 Frc consts  --     0.2791                 0.6275                 0.3112
 IR Inten    --    68.0172                49.0191                 9.6344
 Raman Activ --     0.0000                 0.0000                 0.0000

                     4                      5                      6
                    A"                     A"                     A"
 Frequencies --   672.1081               757.0607               776.3490
 Red. masses --     2.5665                 1.2802                 1.1546
 Frc consts  --     0.6831                 0.4323                 0.4100
 IR Inten    --     0.8093                29.4486                70.6179
 Raman Activ --     0.0000                 0.0000                 0.0000

                     7                      8                      9
                    A'                     A'                     A'
 Frequencies --   887.8658               929.2832              1082.8151
 Red. masses --     5.3845                 4.6081                 1.5836
 Frc consts  --     2.5009                 2.3446                 1.0940
 IR Inten    --     6.4039                 2.7921                30.1150
 Raman Activ --     0.0000                 0.0000                 0.0000

                    10                     11                     12
                    A'                     A'                     A'
 Frequencies --  1098.6035              1148.9597              1174.4624
 Red. masses --     1.4785                 1.6364                 3.5765
 Frc consts  --     1.0514                 1.2728                 2.9066
 IR Inten    --    28.3849                 4.3518                 2.8091
 Raman Activ --     0.0000                 0.0000                 0.0000

                    13                     14                     15
                    A'                     A'                     A'
 Frequencies --  1273.5998              1365.1477              1457.1224
 Red. masses --     1.4053                 3.0706                 4.1371
 Frc consts  --     1.3431                 3.3715                 5.1753
 IR Inten    --     0.9602                 7.7454                16.2448
 Raman Activ --     0.0000                 0.0000                 0.0000

                    16                     17                     18
                    A'                     A'                     A'
 Frequencies --  1498.7585              1527.7794              3278.8221
 Red. masses --     3.0238                 2.8844                 1.0923
 Frc consts  --     4.0019                 3.9667                 6.9188
 IR Inten    --    20.1584                 8.2646                 4.1849
 Raman Activ --     0.0000                 0.0000                 0.0000

                    19                     20                     21
                    A'                     A'                     A'
 Frequencies --  3285.4472              3303.4268              3656.9287
 Red. masses --     1.0976                 1.1061                 1.0827
 Frc consts  --     6.9804                 7.1117                 8.5305
 IR Inten    --     1.7370                 2.2569                63.0284
 Raman Activ --     0.0000                 0.0000                 0.0000

 - Thermochemistry -
 -------------------
 Temperature   298.150 Kelvin.  Pressure   1.00000 Atm.
 Atom  1 has atomic number  7 and mass  14.00307

 Molecular mass:    68.03745 amu.
 Principal axes and moments of inertia in atomic units:
                           1         2         3
     EIGENVALUES --   187.52338 196.55966 384.08304
           X            0.46765   0.88392   0.00000
           Y            0.88392  -0.46765   0.00000
           Z            0.00000   0.00000   1.00000
 THIS MOLECULE IS AN ASYMMETRIC TOP.
 ROTATIONAL SYMMETRY NUMBER  1.
 ROTATIONAL TEMPERATURES (KELVIN)      0.46188     0.44065     0.22551
 ROTATIONAL CONSTANTS (GHZ)            9.62409     9.18165     4.69883
 Zero-point vibrational energy     185083.4 (Joules/Mol)
                                   44.23601 (Kcal/Mol)
 WARNING-- EXPLICIT CONSIDERATION OF   2 DEGREES OF FREEDOM AS
           VIBRATIONS MAY CAUSE SIGNIFICANT ERROR
 VIBRATIONAL TEMPERATURES:    717.89   881.37   945.91   967.01  1089.24
          (KELVIN)           1116.99  1277.43  1337.02  1557.92  1580.64
                             1653.09  1689.78  1832.42  1964.13  2096.46
                             2156.37  2198.12  4717.47  4727.00  4752.87
                             5261.47

 Zero-point correction=                           0.070495 (Hartree/Particle)
 Thermal correction to Energy=                    0.074370
 Thermal correction to Enthalpy=                  0.075314
 Thermal correction to Gibbs Free Energy=         0.044154
 Sum of electronic and zero-point Energies=            -38.787464
 Sum of electronic and thermal Energies=               -38.783589
 Sum of electronic and thermal Enthalpies=             -38.782645
 Sum of electronic and thermal Free Energies=          -38.813805

                     E (Thermal)             CV                S
                      KCAL/MOL        CAL/MOL-KELVIN    CAL/MOL-KELVIN
 TOTAL                   46.668             13.958             65.582
 ELECTRONIC               0.000              0.000              0.000
 TRANSLATIONAL            0.889              2.981             38.570
 ROTATIONAL               0.889              2.981             24.163
 VIBRATIONAL             44.890              7.997              2.849
 VIBRATION  1             0.854              1.252              0.661
 VIBRATION  2             0.972              1.005              0.429
                       Q            LOG10(Q)             LN(Q)
 TOTAL BOT       0.490771D-20        -20.309121        -46.763479
 TOTAL V=0       0.130589D+13         12.115907         27.897907
 VIB (BOT)       0.522348D-32        -32.282040        -74.332145
 VIB (BOT)  1    0.329697D+00         -0.481885         -1.109581
 VIB (BOT)  2    0.240593D+00         -0.618716         -1.424647
 VIB (V=0)       0.138991D+01          0.142988          0.329241
 VIB (V=0)  1    0.109892D+01          0.040964          0.094324
 VIB (V=0)  2    0.105487D+01          0.023201          0.053421
 ELECTRONIC      0.100000D+01          0.000000          0.000000
 TRANSLATIONAL   0.220588D+08          7.343582         16.909224
 ROTATIONAL      0.425929D+05          4.629337         10.659442
 ***** Axes restored to original set *****
 -------------------------------------------------------------------
 Center     Atomic                   Forces (Hartrees/Bohr)
 Number     Number              X              Y              Z
 -------------------------------------------------------------------
    1          7           0.000223607    0.000000000   -0.000001985
    2          1          -0.000015166    0.000000000   -0.000024470
    3          6           0.000252349    0.000000000   -0.000038569
    4          1          -0.000063717    0.000000000   -0.000035920
    5          6          -0.000233158    0.000000000   -0.000086761
    6          1          -0.000023209    0.000000000    0.000088611
    7          1           0.000096084    0.000000000   -0.000024536
    8          6          -0.000300510    0.000000000   -0.000097347
    9          7           0.000063721    0.000000000    0.000220977
 -------------------------------------------------------------------
 Cartesian Forces:  Max     0.000300510 RMS     0.000114526

 GradGradGradGradGradGradGradGradGradGradGradGradGradGradGradGradGradGrad
 Berny optimization.
 Internal  Forces:  Max     0.000199430 RMS     0.000059018
 Search for a local minimum.
 Step number   1 out of a maximum of  48
 All quantities printed in internal units (Hartrees-Bohrs-Radians)
 Second derivative matrix not updated -- analytic derivatives used.
     Eigenvalues ---    0.00473   0.00821   0.01708   0.02560   0.05499
     Eigenvalues ---    0.05950   0.09657   0.10395   0.10936   0.11850
     Eigenvalues ---    0.23286   0.25297   0.34710   0.37597   0.37939
     Eigenvalues ---    0.38161   0.39254   0.45476   0.46961   0.47821
     Eigenvalues ---    0.544051000.000001000.000001000.000001000.00000
     Eigenvalues --- 1000.000001000.000001000.000001000.000001000.00000
     Eigenvalues --- 1000.000001000.000001000.000001000.000001000.00000
     Eigenvalues --- 1000.000001000.000001000.00000
 Angle between quadratic step and forces=  27.88 degrees.
 Linear search not attempted -- first point.
 Iteration  1 RMS(Cart)=  0.00018375 RMS(Int)=  0.00000003
 Iteration  2 RMS(Cart)=  0.00000004 RMS(Int)=  0.00000000
 Variable       Old X    -DE/DX   Delta X   Delta X   Delta X     New X
                                 (Linear)    (Quad)   (Total)
    R1        2.61984   0.00016   0.00000   0.00061   0.00061   2.62044
    R2        2.52295  -0.00005   0.00000  -0.00012  -0.00012   2.52284
    R3        1.91661   0.00002   0.00000   0.00004   0.00004   1.91665
    R4        2.04388   0.00007   0.00000   0.00020   0.00020   2.04408
    R5        2.62675   0.00001   0.00000  -0.00001  -0.00001   2.62674
    R6        2.61843  -0.00011   0.00000  -0.00028  -0.00028   2.61815
    R7        2.04629   0.00008   0.00000   0.00019   0.00019   2.04647
    R8        2.04667   0.00010   0.00000   0.00027   0.00027   2.04695
    R9        2.60055  -0.00020   0.00000  -0.00051  -0.00051   2.60004
    A1        1.83129  -0.00004   0.00000  -0.00013  -0.00013   1.83117
    A2        2.31977  -0.00002   0.00000  -0.00020  -0.00020   2.31957
    A3        2.13409  -0.00001   0.00000   0.00003   0.00003   2.13412
    A4        1.82933   0.00003   0.00000   0.00017   0.00017   1.82950
    A5        1.93794  -0.00010   0.00000  -0.00032  -0.00032   1.93762
    A6        2.11309   0.00000   0.00000  -0.00037  -0.00037   2.11273
    A7        2.23215   0.00009   0.00000   0.00069   0.00069   2.23284
    A8        2.19646  -0.00002   0.00000  -0.00005  -0.00005   2.19641
    A9        1.94757   0.00006   0.00000   0.00020   0.00020   1.94777
   A10        2.13915  -0.00004   0.00000  -0.00014  -0.00014   2.13901
   A11        2.19771  -0.00004   0.00000  -0.00026  -0.00026   2.19745
   A12        2.20683   0.00000   0.00000   0.00018   0.00018   2.20702
   A13        1.87864   0.00004   0.00000   0.00008   0.00008   1.87872
    D1        0.00000   0.00000   0.00000   0.00000   0.00000   0.00000
    D2        3.14159   0.00000   0.00000   0.00000   0.00000   3.14159
    D3        3.14159   0.00000   0.00000   0.00000   0.00000   3.14159
    D4        0.00000   0.00000   0.00000   0.00000   0.00000   0.00000
    D5        3.14159   0.00000   0.00000   0.00000   0.00000   3.14159
    D6        0.00000   0.00000   0.00000   0.00000   0.00000   0.00000
    D7        0.00000   0.00000   0.00000   0.00000   0.00000   0.00000
    D8        3.14159   0.00000   0.00000   0.00000   0.00000   3.14159
    D9        0.00000   0.00000   0.00000   0.00000   0.00000   0.00000
   D10        3.14159   0.00000   0.00000   0.00000   0.00000   3.14159
   D11        3.14159   0.00000   0.00000   0.00000   0.00000   3.14159
   D12        0.00000   0.00000   0.00000   0.00000   0.00000   0.00000
   D13        3.14159   0.00000   0.00000   0.00000   0.00000   3.14159
   D14        0.00000   0.00000   0.00000   0.00000   0.00000   0.00000
   D15        0.00000   0.00000   0.00000   0.00000   0.00000   0.00000
   D16        3.14159   0.00000   0.00000   0.00000   0.00000   3.14159
         Item               Value     Threshold  Converged?
 Maximum Force            0.000199     0.000450     YES
 RMS     Force            0.000059     0.000300     YES
 Maximum Displacement     0.000637     0.001800     YES
 RMS     Displacement     0.000184     0.001200     YES
 Predicted change in Energy=-2.177953D-07
 Optimization completed.
    -- Stationary point found.
                         ----------------------------
                         !   Optimized Parameters   !
                         ! (Angstroms and Degrees)  !
 ------------------------                            -------------------------
 ! Name  Definition              Value          Derivative Info.             !
 -----------------------------------------------------------------------------
 ! R1    R(1,5)                  1.3864         -DE/DX =    0.0002           !
 ! R2    R(1,8)                  1.3351         -DE/DX =    0.               !
 ! R3    R(2,9)                  1.0142         -DE/DX =    0.               !
 ! R4    R(3,4)                  1.0816         -DE/DX =    0.0001           !
 ! R5    R(3,5)                  1.39           -DE/DX =    0.               !
 ! R6    R(3,9)                  1.3856         -DE/DX =   -0.0001           !
 ! R7    R(5,6)                  1.0828         -DE/DX =    0.0001           !
 ! R8    R(7,8)                  1.0831         -DE/DX =    0.0001           !
 ! R9    R(8,9)                  1.3761         -DE/DX =   -0.0002           !
 ! A1    A(5,1,8)              104.9254         -DE/DX =    0.               !
 ! A2    A(4,3,5)              132.9128         -DE/DX =    0.               !
 ! A3    A(4,3,9)              122.2742         -DE/DX =    0.               !
 ! A4    A(5,3,9)              104.813          -DE/DX =    0.               !
 ! A5    A(1,5,3)              111.0358         -DE/DX =   -0.0001           !
 ! A6    A(1,5,6)              121.0714         -DE/DX =    0.               !
 ! A7    A(3,5,6)              127.8928         -DE/DX =    0.0001           !
 ! A8    A(1,8,7)              125.848          -DE/DX =    0.               !
 ! A9    A(1,8,9)              111.5876         -DE/DX =    0.0001           !
 ! A10   A(7,8,9)              122.5644         -DE/DX =    0.               !
 ! A11   A(2,9,3)              125.9195         -DE/DX =    0.               !
 ! A12   A(2,9,8)              126.4423         -DE/DX =    0.               !
 ! A13   A(3,9,8)              107.6382         -DE/DX =    0.               !
 ! D1    D(8,1,5,3)              0.             -DE/DX =    0.               !
 ! D2    D(8,1,5,6)            180.             -DE/DX =    0.               !
 ! D3    D(5,1,8,7)            180.             -DE/DX =    0.               !
 ! D4    D(5,1,8,9)              0.             -DE/DX =    0.               !
 ! D5    D(4,3,5,1)            180.             -DE/DX =    0.               !
 ! D6    D(4,3,5,6)              0.             -DE/DX =    0.               !
 ! D7    D(9,3,5,1)              0.             -DE/DX =    0.               !
 ! D8    D(9,3,5,6)            180.             -DE/DX =    0.               !
 ! D9    D(4,3,9,2)              0.             -DE/DX =    0.               !
 ! D10   D(4,3,9,8)            180.             -DE/DX =    0.               !
 ! D11   D(5,3,9,2)            180.             -DE/DX =    0.               !
 ! D12   D(5,3,9,8)              0.             -DE/DX =    0.               !
 ! D13   D(1,8,9,2)            180.             -DE/DX =    0.               !
 ! D14   D(1,8,9,3)              0.             -DE/DX =    0.               !
 ! D15   D(7,8,9,2)              0.             -DE/DX =    0.               !
 ! D16   D(7,8,9,3)            180.             -DE/DX =    0.               !
 -----------------------------------------------------------------------------
 GradGradGradGradGradGradGradGradGradGradGradGradGradGradGradGradGradGrad

 1\1\GINC-INDIUM\Freq\RMP2-FC\CEP-121G(d)\C3H4N2\RDJ3\10-Nov-2000\0\\#N
  GEOM=ALLCHECK GUESS=TCHECK RMP2(FC)/CEP-121G(D) FREQ\\1H imidazole C3
 H4N2 casno=288324\\0,1\N,0.501255841,0.,1.167335498\H,0.4908999963,0.,
 -2.0470978268\C,-1.0288410064,0.,-0.5345369881\H,-1.9106206109,0.,-1.1
 608478392\C,-0.8467495038,0.,0.8434982138\H,-1.6068032935,0.,1.6147824
 277\H,2.2109484426,0.,-0.1464578077\C,1.1369500233,0.,-0.0066991482\N,
 0.2527716417,0.,-1.0612209508\\Version=IBM-RS6000-G98RevA.6\State=1-A'
 \HF=-38.1415021\MP2=-38.8579586\RMSD=1.479e-09\RMSF=1.145e-04\Dipole=-
 0.1343054,0.,-1.5790569\DipoleDeriv=-0.3149493,0.,0.004967,0.,-0.28954
 59,0.,-0.0847913,0.,-0.5487746,0.1912927,0.,-0.0142085,0.,0.3490132,0.
 ,-0.0044154,0.,0.2113008,0.0549805,0.,-0.2121007,0.,-0.1500246,0.,-0.1
 001906,0.,0.1566954,0.0224639,0.,-0.0458357,0.,0.2095482,0.,-0.0705868
 ,0.,0.0430545,0.1599407,0.,-0.0381826,0.,-0.179263,0.,-0.0571566,0.,0.
 1170655,-0.0009548,0.,0.0583818,0.,0.1800252,0.,0.0874677,0.,0.0342463
 ,-0.0220181,0.,0.0373588,0.,0.1859176,0.,0.0309388,0.,0.0671974,0.0768
 846,0.,0.0870171,0.,-0.0537954,0.,0.1301791,0.,0.562248,-0.16764,0.,0.
 1226029,0.,-0.2518753,0.,0.0685551,0.,-0.6430334\Polar=51.4285228,0.,2
 5.2814665,-0.4463052,0.,47.9584749\PG=CS [SG(C3H4N2)]\NImag=0\\0.49491
 145,0.,0.09698126,-0.05287281,0.,0.53700446,-0.00312783,0.,-0.00843566
 ,0.07943502,0.,0.00697732,0.,0.,0.01137333,-0.00367071,0.,-0.00291293,
 -0.09599578,0.,0.45154865,-0.03179123,0.,-0.01838721,0.00608724,0.,-0.
 00434871,0.75750142,0.,0.01182903,0.,0.,-0.00898668,0.,0.,0.08093826,-
 0.07649262,0.,-0.01816595,0.02845762,0.,-0.00004161,0.14802545,0.,0.71
 980607,0.00147626,0.,0.00167950,0.00030855,0.,-0.00003079,-0.25908222,
 0.,-0.14335553,0.27174538,0.,0.00753910,0.,0.,-0.00078066,0.,0.,-0.012
 29146,0.,0.,0.01493776,-0.00409796,0.,-0.00535051,-0.00088860,0.,-0.00
 001606,-0.15526754,0.,-0.16827814,0.15553782,0.,0.15997328,-0.27212880
 ,0.,-0.03022461,-0.00926043,0.,-0.00046757,-0.09621183,0.,-0.02105929,
 0.00567115,0.,-0.02042025,0.66754404,0.,-0.06101129,0.,0.,0.00279549,0
 .,0.,-0.04457544,0.,0.,-0.00622067,0.,0.,0.10551616,-0.05597305,0.,-0.
 10795526,0.00333725,0.,0.00094204,-0.02488249,0.,-0.36857612,0.0033425
 7,0.,0.00369774,-0.15665572,0.,0.77087997,-0.01768885,0.,0.02138904,0.
 00083248,0.,-0.00004349,0.00842959,0.,-0.00789366,-0.00036119,0.,0.000
 49181,-0.19779325,0.,0.15169957,0.21283625,0.,-0.00697608,0.,0.,0.0022
 2412,0.,0.,-0.00472661,0.,0.,-0.00086360,0.,0.,-0.02092643,0.,0.,0.019
 92827,-0.00932890,0.,0.01173671,0.00124461,0.,0.00030050,0.01949392,0.
 ,-0.00592588,-0.00029249,0.,-0.00019537,0.15581699,0.,-0.22072122,-0.1
 6200477,0.,0.21941890,-0.00602220,0.,-0.00000327,-0.00056927,0.,-0.000
 14805,0.00060539,0.,-0.00267269,-0.00029305,0.,0.00043795,0.00058784,0
 .,0.00223559,-0.00024592,0.,-0.00024923,0.37378437,0.,-0.00630656,0.,0
 .,-0.00105273,0.,0.,0.00243170,0.,0.,0.00220998,0.,0.,0.00602507,0.,0.
 ,0.00149683,0.,0.,0.01848395,0.02868340,0.,0.00132506,0.00051607,0.,0.
 00029951,-0.00134825,0.,-0.00605717,-0.00110285,0.,0.00112419,0.003182
 66,0.,-0.00498367,0.00151380,0.,0.00080324,-0.04007264,0.,0.06223722,-
 0.15341616,0.,0.09859822,0.01724691,0.,0.01413553,-0.08480909,0.,0.002
 17853,-0.00321209,0.,0.00437546,-0.08554863,0.,0.01569585,-0.00642190,
 0.,-0.00364043,-0.35753068,0.,0.03908875,0.88570535,0.,-0.07025083,0.,
 0.,-0.00946563,0.,0.,0.01543188,0.,0.,0.00241627,0.,0.,0.01055971,0.,0
 .,0.00498557,0.,0.,-0.01936512,0.,0.,0.11725723,0.14502732,0.,-0.31997
 348,-0.01740338,0.,-0.00897843,-0.03475558,0.,-0.01043547,0.00369066,0
 .,-0.00543734,0.05839791,0.,-0.00683708,-0.00191174,0.,0.00027935,0.03
 490182,0.,-0.06124354,-0.06577084,0.,0.63332004,-0.01221264,0.,-0.0117
 4319,-0.09095267,0.,0.09056958,-0.30072927,0.,0.07281221,-0.01625280,0
 .,0.01983133,-0.01286009,0.,0.06120042,0.00041279,0.,-0.00103969,-0.01
 031649,0.,-0.03046094,-0.21201371,0.,-0.12217619,0.65492487,0.,0.02121
 805,0.,0.,-0.00308456,0.,0.,-0.04005068,0.,0.,-0.00694672,0.,0.,0.0078
 3740,0.,0.,0.00485793,0.,0.,-0.00392311,0.,0.,-0.05156908,0.,0.,0.0716
 6078,0.02872533,0.,-0.09570810,0.08916788,0.,-0.44114167,0.07147041,0.
 ,-0.14232573,-0.01946890,0.,0.01448221,0.01142988,0.,-0.06644640,-0.00
 324055,0.,-0.00569623,0.00557053,0.,0.00649516,-0.10466107,0.,-0.22069
 404,-0.07899351,0.,0.95103480\\-0.00022361,0.,0.00000198,0.00001517,0.
 ,0.00002447,-0.00025235,0.,0.00003857,0.00006372,0.,0.00003592,0.00023
 316,0.,0.00008676,0.00002321,0.,-0.00008861,-0.00009608,0.,0.00002454,
 0.00030051,0.,0.00009735,-0.00006372,0.,-0.00022098\\\@

 DESK:  A WASTEBASKET WITH DRAWERS.
 Job cpu time:  0 days  0 hours 26 minutes 32.2 seconds.
 File lengths (MBytes):  RWF=  553 Int=    0 D2E=    0 Chk=    9 Scr=    1
 Normal termination of Gaussian 98.
