 Gaussian 03, Revision C.02,
 Gaussian 03:  IA32L-G03RevC.02 12-Jun-2004

 -------------------------
 #MP2/6-311G(d,p) opt freq
 -------------------------

 --------------------------------------------------
 1H imidazole C3H4N2 casno=288324 method=3 basis=21
 --------------------------------------------------
 Symbolic Z-matrix:
 Charge =  0 Multiplicity = 1

 SCF Done:  E(RHF) =  -224.820280882     A.U. after   14 cycles
 E2 =    -0.7444333711D+00 EUMP2 =    -0.22556471425342D+03
 SCF Done:  E(RHF) =  -224.863985407     A.U. after   13 cycles
 E2 =    -0.7565731485D+00 EUMP2 =    -0.22562055855521D+03
 SCF Done:  E(RHF) =  -224.865260529     A.U. after   13 cycles
 E2 =    -0.7644187965D+00 EUMP2 =    -0.22562967932552D+03
 SCF Done:  E(RHF) =  -224.865905977     A.U. after   10 cycles
 E2 =    -0.7639782078D+00 EUMP2 =    -0.22562988418447D+03
 SCF Done:  E(RHF) =  -224.866245544     A.U. after   11 cycles
 E2 =    -0.7636970690D+00 EUMP2 =    -0.22562994261279D+03
 SCF Done:  E(RHF) =  -224.866415019     A.U. after    9 cycles
 E2 =    -0.7635338894D+00 EUMP2 =    -0.22562994890841D+03
 Optimization completed.
    -- Stationary point found.
 Normal termination of Gaussian 03 at Wed Jan  5 14:16:05 2005.

 ----------------------------------------------------------------------
 #N Geom=AllCheck Guess=Read SCRF=Check GenChk RMP2(FC)/6-311G(d,p) Fre
 q
 ----------------------------------------------------------------------

 1H imidazole C3H4N2 casno=288324 method=3 basis=21
 --------------------------------------------------
 Redundant internal coordinates taken from checkpoint file:
 /scratch/Gau-11758.chk
 Charge =  0 Multiplicity = 1

                         Standard orientation:
 ---------------------------------------------------------------------
 Center     Atomic     Atomic              Coordinates (Angstroms)
 Number     Number      Type              X           Y           Z
 ---------------------------------------------------------------------
    1          7             0       -0.741060   -0.994141    0.000000
    2          1             0       -0.011035    2.113319    0.000000
    3          6             0        1.120111    0.308069    0.000000
    4          1             0        2.119035    0.715748    0.000000
    5          6             0        0.633947   -0.984802    0.000000
    6          1             0        1.202540   -1.903503    0.000000
    7          1             0       -2.102175    0.663256    0.000000
    8          6             0       -1.090881    0.282560    0.000000
    9          7             0        0.000000    1.105030    0.000000
 ---------------------------------------------------------------------

 SCF Done:  E(RHF) =  -224.866415019     A.U. after    1 cycles
 E2 =    -0.7635338929D+00 EUMP2 =    -0.22562994891192D+03

 The electronic state is 1-A'.
 Alpha  occ. eigenvalues --  -15.62046 -15.54004 -11.29503 -11.26044 -11.24144
 Alpha  occ. eigenvalues --   -1.33717  -1.16383  -1.00233  -0.82703  -0.79632
 Alpha  occ. eigenvalues --   -0.75522  -0.60531  -0.60087  -0.59390  -0.56621
 Alpha  occ. eigenvalues --   -0.43458  -0.39636  -0.31583
 Alpha virt. eigenvalues --    0.14122   0.17487   0.18411   0.19482   0.21185
 Alpha virt. eigenvalues --    0.22751   0.34960   0.37305   0.40514   0.43463
 Alpha virt. eigenvalues --    0.50696   0.53904   0.56062   0.58547   0.59855

 Mulliken atomic charges:
              1
     1  N   -0.393147
     2  H    0.242149
     3  C    0.005199
     4  H    0.117719
     5  C   -0.031853
     6  H    0.107243
     7  H    0.119997
     8  C    0.244193
     9  N   -0.411501
 Sum of Mulliken charges=   0.00000

 Dipole moment (field-independent basis, Debye):
    X=     1.0700    Y=     3.7828    Z=     0.0000  Tot=     3.9312
 Quadrupole moment (field-independent basis, Debye-Ang):
   XX=   -26.2189   YY=   -25.5978   ZZ=   -32.3025
   XY=    -3.5622   XZ=     0.0000   YZ=     0.0000

  Exact polarizability:  49.096  -1.467  46.577   0.000   0.000  22.270
 Approx polarizability:  44.799   0.600  46.940   0.000   0.000  24.425

                     1                      2                      3
                    A"                     A"                     A"
 Frequencies --   512.2374               639.8151               680.0883
 Red. masses --     1.7947                 2.6947                 2.6376
 Frc consts  --     0.2775                 0.6499                 0.7188
 IR Inten    --    77.9562                27.5339                 0.5801

                     4                      5                      6
                    A"                     A"                     A"
 Frequencies --   700.5227               785.8114               827.0944
 Red. masses --     1.1976                 1.2850                 1.2324
 Frc consts  --     0.3463                 0.4675                 0.4967
 IR Inten    --    24.3546                44.6746                14.2635

                     7                      8                      9
                    A'                     A'                     A'
 Frequencies --   899.4806               937.9573              1088.5138
 Red. masses --     5.3589                 4.4811                 1.5316
 Frc consts  --     2.5545                 2.3227                 1.0692
 IR Inten    --     6.8316                 2.1790                21.0500

                    10                     11                     12
                    A'                     A'                     A'
 Frequencies --  1107.4190              1156.0989              1193.4776
 Red. masses --     1.4501                 1.4298                 5.2777
 Frc consts  --     1.0478                 1.1259                 4.4292
 IR Inten    --    29.4239                 2.6719                 3.8125

                    13                     14                     15
                    A'                     A'                     A'
 Frequencies --  1280.1920              1374.6639              1475.5306
 Red. masses --     1.3866                 3.2478                 4.1477
 Frc consts  --     1.3389                 3.6160                 5.3205
 IR Inten    --     0.8270                 7.8177                14.5357

                    16                     17                     18
                    A'                     A'                     A'
 Frequencies --  1513.4889              1542.2073              3284.5293
 Red. masses --     3.2507                 2.9719                 1.0921
 Frc consts  --     4.3872                 4.1646                 6.9415
 IR Inten    --    20.2365                 8.1262                 3.8717

                    19                     20                     21
                    A'                     A'                     A'
 Frequencies --  3290.7061              3314.2404              3693.2191
 Red. masses --     1.0969                 1.1055                 1.0823
 Frc consts  --     6.9985                 7.1544                 8.6978
 IR Inten    --     0.8425                 0.9745                73.5342

 - Thermochemistry -
 -------------------
 Temperature   298.150 Kelvin.  Pressure   1.00000 Atm.
 Atom  1 has atomic number  7 and mass  14.00307

 Molecular mass:    68.03745 amu.
 Principal axes and moments of inertia in atomic units:
                           1         2         3
     EIGENVALUES --   184.75164 193.83004 378.58168
           X            0.45597   0.88999   0.00000
           Y            0.88999  -0.45597   0.00000
           Z            0.00000   0.00000   1.00000
 This molecule is an asymmetric top.
 Rotational symmetry number  1.
 Rotational temperatures (Kelvin)      0.46881     0.44685     0.22879
 Rotational constants (GHZ):           9.76847     9.31095     4.76711
 Zero-point vibrational energy     187199.4 (Joules/Mol)
                                   44.74173 (Kcal/Mol)
 Warning -- explicit consideration of   1 degrees of freedom as
           vibrations may cause significant error
 Vibrational temperatures:    736.99   920.55   978.49  1007.89  1130.61
          (Kelvin)           1190.00  1294.15  1349.51  1566.13  1593.33
                             1663.37  1717.15  1841.91  1977.83  2122.96
                             2177.57  2218.89  4725.70  4734.59  4768.45
                             5313.71

 Zero-point correction=                           0.071300 (Hartree/Particle)
 Thermal correction to Energy=                    0.075097
 Thermal correction to Enthalpy=                  0.076042
 Thermal correction to Gibbs Free Energy=         0.045012
 Sum of electronic and zero-point Energies=           -225.558648
 Sum of electronic and thermal Energies=              -225.554852
 Sum of electronic and thermal Enthalpies=            -225.553907
 Sum of electronic and thermal Free Energies=         -225.584937

                     E (Thermal)             CV                S
                      KCal/Mol        Cal/Mol-Kelvin    Cal/Mol-Kelvin
 Total                   47.124             13.561             65.308
 Electronic               0.000              0.000              0.000
 Translational            0.889              2.981             38.570
 Rotational               0.889              2.981             24.120
 Vibrational             45.347              7.599              2.617
 Vibration  1             0.867              1.223              0.628

 Optimization completed.
    -- Stationary point found.
 Normal termination of Gaussian 03 at Wed Jan  5 14:37:16 2005.
