 Gaussian 98, Revision A.4,
 Gaussian 98:  x86-Linux-G98RevA.4 11-Sep-1998

 -------------------
 #MP2/3-21G opt freq
 -------------------

 --------------------------------
 1H imidazole C3H4N2 casno=288324
 --------------------------------
 Symbolic Z-matrix:
 Charge =  0 Multiplicity = 1

 SCF Done:  E(RHF) =  -223.491670812     A.U. after   13 cycles
 E2 =    -0.4499617852D+00 EUMP2 =    -0.22394163259711D+03
 SCF Done:  E(RHF) =  -223.541668620     A.U. after   13 cycles
 E2 =    -0.4682196803D+00 EUMP2 =    -0.22400988829988D+03
 SCF Done:  E(RHF) =  -223.540862461     A.U. after   13 cycles
 E2 =    -0.4860188394D+00 EUMP2 =    -0.22402688130046D+03
 SCF Done:  E(RHF) =  -223.542287293     A.U. after   12 cycles
 E2 =    -0.4852716336D+00 EUMP2 =    -0.22402755892658D+03
 SCF Done:  E(RHF) =  -223.542747302     A.U. after   12 cycles
 E2 =    -0.4850643359D+00 EUMP2 =    -0.22402781163803D+03
 SCF Done:  E(RHF) =  -223.543095545     A.U. after   12 cycles
 E2 =    -0.4847746178D+00 EUMP2 =    -0.22402787016318D+03
 SCF Done:  E(RHF) =  -223.543130008     A.U. after    9 cycles
 E2 =    -0.4847429489D+00 EUMP2 =    -0.22402787295673D+03
 Optimization completed.
    -- Stationary point found.
 Normal termination of Gaussian 98.

 -------------------------------------------------
 #N Geom=AllCheck Guess=TCheck RMP2(FC)/3-21G Freq
 -------------------------------------------------

 1H imidazole C3H4N2 casno=288324
 --------------------------------
 Redundant internal coordinates taken from checkpointfile:
 /wrk/rdj3/Gau-31481.chk
 Charge =  0 Multiplicity = 1

                         Standard orientation:
 ---------------------------------------------------------------------
 Center     Atomic     Atomic              Coordinates (Angstroms)
 Number     Number      Type              X           Y           Z
 ---------------------------------------------------------------------
    1          7             0       -0.759701   -1.007745    0.000000
    2          1             0       -0.000256    2.139270    0.000000
    3          6             0        1.137322    0.301930    0.000000
    4          1             0        2.138011    0.701122    0.000000
    5          6             0        0.659726   -0.996984    0.000000
    6          1             0        1.222827   -1.914640    0.000000
    7          1             0       -2.125797    0.667695    0.000000
    8          6             0       -1.116528    0.291151    0.000000
    9          7             0        0.000000    1.126312    0.000000
 ---------------------------------------------------------------------

 SCF Done:  E(RHF) =  -223.543130008     A.U. after    1 cycles
 E2 =    -0.4847429496D+00 EUMP2 =    -0.22402787295748D+03

  The electronic state is 1-A'.
 Alpha  occ. eigenvalues --  -15.55322 -15.48020 -11.25025 -11.21896 -11.19490
 Alpha  occ. eigenvalues --   -1.32666  -1.15550  -1.00194  -0.81830  -0.79016
 Alpha  occ. eigenvalues --   -0.75461  -0.60224  -0.59885  -0.58564  -0.56384
 Alpha  occ. eigenvalues --   -0.42019  -0.38688  -0.32308
 Alpha virt. eigenvalues --    0.18168   0.24044   0.25294   0.30487   0.32206
 Alpha virt. eigenvalues --    0.34728   0.41214   0.42869   0.55433   0.57778
 Alpha virt. eigenvalues --    0.68675   0.93936   0.96619   0.96817   1.01620

  Exact polarizability:  43.453  -2.031  41.795   0.000   0.000  12.353
 Approx polarizability:  40.587   0.677  45.027   0.000   0.000  11.203

                     1                      2                      3
                    A"                     A"                     A"
 Frequencies --   609.2371               655.4653               679.7736
 Red. masses --     1.8231                 1.7704                 3.1279
 Frc consts  --     0.3987                 0.4482                 0.8516
 IR Inten    --   128.4083                35.3506                 2.8240
 Raman Activ --     0.0000                 0.0000                 0.0000

                     4                      5                      6
                    A"                     A"                     A"
 Frequencies --   731.9545               815.4322               847.8478
 Red. masses --     1.2373                 1.3660                 1.3079
 Frc consts  --     0.3906                 0.5352                 0.5539
 IR Inten    --    34.4914                36.4920                 7.0056
 Raman Activ --     0.0000                 0.0000                 0.0000

                     7                      8                      9
                    A'                     A'                     A'
 Frequencies --   908.3485               953.3964              1031.1005
 Red. masses --     6.5229                 4.5098                 2.9765
 Frc consts  --     3.1710                 2.4152                 1.8645
 IR Inten    --     9.5803                 2.8794                 9.9484
 Raman Activ --     0.0000                 0.0000                 0.0000

                    10                     11                     12
                    A'                     A'                     A'
 Frequencies --  1081.7685              1087.4297              1163.1399
 Red. masses --     2.4383                 3.2347                 1.4146
 Frc consts  --     1.6811                 2.2537                 1.1276
 IR Inten    --    12.7034                23.2749                 1.6398
 Raman Activ --     0.0000                 0.0000                 0.0000

                    13                     14                     15
                    A'                     A'                     A'
 Frequencies --  1249.0242              1323.0988              1397.3006
 Red. masses --     3.0916                 1.5253                 2.0255
 Frc consts  --     2.8417                 1.5732                 2.3300
 IR Inten    --    10.9894                 6.6023                13.6120
 Raman Activ --     0.0000                 0.0000                 0.0000

                    16                     17                     18
                    A'                     A'                     A'
 Frequencies --  1456.7839              1515.7489              3304.5730
 Red. masses --     2.0791                 2.1438                 1.0912
 Frc consts  --     2.5997                 2.9020                 7.0207
 IR Inten    --     5.5370                21.6014                 1.3857
 Raman Activ --     0.0000                 0.0000                 0.0000

                    19                     20                     21
                    A'                     A'                     A'
 Frequencies --  3309.8750              3330.2033              3602.6300
 Red. masses --     1.0958                 1.1066                 1.0825
 Frc consts  --     7.0727                 7.2310                 8.2780
 IR Inten    --     2.0061                 0.9651                69.5051
 Raman Activ --     0.0000                 0.0000                 0.0000

 - Thermochemistry -
 -------------------
 Temperature   298.150 Kelvin.  Pressure   1.00000 Atm.
 Atom  1 has atomic number  7 and mass  14.00307

 Molecular mass:    68.03745 amu.
 Principal axes and moments of inertia in atomic units:
                           1         2         3
     EIGENVALUES --   192.81477 198.82715 391.64192
           X            0.51047   0.85989   0.00000
           Y            0.85989  -0.51047   0.00000
           Z            0.00000   0.00000   1.00000
 THIS MOLECULE IS AN ASYMMETRIC TOP.
 ROTATIONAL SYMMETRY NUMBER  1.
 ROTATIONAL TEMPERATURES (KELVIN)      0.44921     0.43562     0.22115
 ROTATIONAL CONSTANTS (GHZ)            9.35997     9.07694     4.60814
 Zero-point vibrational energy     185745.0 (Joules/Mol)
                                   44.39412 (Kcal/Mol)
 WARNING-- EXPLICIT CONSIDERATION OF   1 DEGREES OF FREEDOM AS
           VIBRATIONS MAY CAUSE SIGNIFICANT ERROR
 VIBRATIONAL TEMPERATURES:    876.55   943.06   978.04  1053.11  1173.22
          (KELVIN)           1219.86  1306.90  1371.72  1483.52  1556.41
                             1564.56  1673.49  1797.06  1903.63  2010.39
                             2095.97  2180.81  4754.52  4762.14  4791.39
                             5183.35

 Zero-point correction=                           0.070747 (Hartree/Particle)
 Thermal correction to Energy=                    0.074471
 Thermal correction to Enthalpy=                  0.075415
 Thermal correction to Gibbs Free Energy=         0.044450
 Sum of electronic and zero-point Energies=           -223.957126
 Sum of electronic and thermal Energies=              -223.953402
 Sum of electronic and thermal Enthalpies=            -223.952458
 Sum of electronic and thermal Free Energies=         -223.983423

                     E (Thermal)             CV                S
                      KCAL/MOL        CAL/MOL-KELVIN    CAL/MOL-KELVIN
 TOTAL                   46.731             13.388             65.171
 ELECTRONIC               0.000              0.000              0.000
 TRANSLATIONAL            0.889              2.981             38.570
 ROTATIONAL               0.889              2.981             24.222
 VIBRATIONAL             44.954              7.426              2.379
 VIBRATION  1             0.968              1.012              0.434
                       Q            LOG10(Q)             LN(Q)
 TOTAL BOT       0.358594D-20        -20.445397        -47.077265
 TOTAL V=0       0.124602D+13         12.095526         27.850977
 VIB (BOT)       0.370612D-32        -32.431081        -74.675324
 VIB (BOT)  1    0.242764D+00         -0.614817         -1.415667
 VIB (V=0)       0.128778D+01          0.109841          0.252919
 VIB (V=0)  1    0.105582D+01          0.023589          0.054316
 ELECTRONIC      0.100000D+01          0.000000          0.000000
 TRANSLATIONAL   0.220588D+08          7.343582         16.909224
 ROTATIONAL      0.438634D+05          4.642102         10.688835
 ***** Axes restored to original set *****
 -------------------------------------------------------------------
 Center     Atomic                   Forces (Hartrees/Bohr)
 Number     Number              X              Y              Z
 -------------------------------------------------------------------
    1          7           0.000378320    0.000000000   -0.000083265
    2          1           0.000020952    0.000000000   -0.000083514
    3          6           0.000502309    0.000000000   -0.000319095
    4          1          -0.000107313    0.000000000   -0.000053711
    5          6          -0.000400929    0.000000000    0.000137174
    6          1          -0.000055805    0.000000000    0.000110174
    7          1           0.000147884    0.000000000   -0.000026584
    8          6          -0.000389896    0.000000000   -0.000179339
    9          7          -0.000095521    0.000000000    0.000498160
 -------------------------------------------------------------------
 Cartesian Forces:  Max     0.000502309 RMS     0.000209485

 GradGradGradGradGradGradGradGradGradGradGradGradGradGradGradGradGradGrad
 Berny optimization.
 Internal  Forces:  Max     0.000303386 RMS     0.000111478
 Search for a local minimum.
 Step number   1 out of a maximum of  48
 All quantities printed in internal units (Hartrees-Bohrs-Radians)
 Second derivative matrix not updated -- analytic derivatives used.
     Eigenvalues ---    0.00694   0.01104   0.02003   0.02711   0.06276
     Eigenvalues ---    0.06523   0.10330   0.10966   0.11467   0.12046
     Eigenvalues ---    0.21101   0.23691   0.29507   0.34705   0.38371
     Eigenvalues ---    0.38521   0.38814   0.42606   0.45964   0.47199
     Eigenvalues ---    0.509131000.000001000.000001000.000001000.00000
     Eigenvalues --- 1000.000001000.000001000.000001000.000001000.00000
     Eigenvalues --- 1000.000001000.000001000.000001000.000001000.00000
     Eigenvalues --- 1000.000001000.000001000.00000
 Angle between quadratic step and forces=  19.02 degrees.
 Linear search not attempted -- first point.
 Iteration  1 RMS(Cart)=  0.00035520 RMS(Int)=  0.00000011
 Iteration  2 RMS(Cart)=  0.00000010 RMS(Int)=  0.00000002
 Variable       Old X    -DE/DX   Delta X   Delta X   Delta X     New X
                                 (Linear)    (Quad)   (Total)
    R1        2.68240   0.00029   0.00000   0.00129   0.00129   2.68369
    R2        2.54549  -0.00008   0.00000  -0.00023  -0.00023   2.54526
    R3        1.91421   0.00009   0.00000   0.00019   0.00019   1.91440
    R4        2.03594   0.00012   0.00000   0.00032   0.00032   2.03627
    R5        2.61526   0.00019   0.00000   0.00050   0.00050   2.61576
    R6        2.65445  -0.00028   0.00000  -0.00097  -0.00097   2.65347
    R7        2.03457   0.00012   0.00000   0.00025   0.00025   2.03482
    R8        2.03566   0.00015   0.00000   0.00041   0.00041   2.03606
    R9        2.63488  -0.00030   0.00000  -0.00089  -0.00089   2.63399
    A1        1.83132  -0.00002   0.00000  -0.00014  -0.00014   1.83118
    A2        2.30271  -0.00004   0.00000  -0.00047  -0.00047   2.30224
    A3        2.13481  -0.00001   0.00000   0.00018   0.00018   2.13499
    A4        1.84566   0.00005   0.00000   0.00029   0.00029   1.84595
    A5        1.93072  -0.00022   0.00000  -0.00079  -0.00079   1.92993
    A6        2.11360   0.00007   0.00000  -0.00011  -0.00011   2.11349
    A7        2.23887   0.00015   0.00000   0.00090   0.00090   2.23977
    A8        2.19599  -0.00002   0.00000  -0.00016  -0.00016   2.19583
    A9        1.94491   0.00006   0.00000   0.00024   0.00024   1.94515
   A10        2.14228  -0.00004   0.00000  -0.00008  -0.00008   2.14221
   A11        2.19826  -0.00006   0.00000  -0.00021  -0.00021   2.19805
   A12        2.21276  -0.00007   0.00000  -0.00019  -0.00019   2.21257
   A13        1.87217   0.00013   0.00000   0.00040   0.00040   1.87257
    D1        0.00000   0.00000   0.00000   0.00000   0.00000   0.00000
    D2        3.14159   0.00000   0.00000   0.00000   0.00000   3.14159
    D3        3.14159   0.00000   0.00000   0.00000   0.00000   3.14159
    D4        0.00000   0.00000   0.00000   0.00000   0.00000   0.00000
    D5        3.14159   0.00000   0.00000   0.00000   0.00000   3.14159
    D6        0.00000   0.00000   0.00000   0.00000   0.00000   0.00000
    D7        0.00000   0.00000   0.00000   0.00000   0.00000   0.00000
    D8        3.14159   0.00000   0.00000   0.00000   0.00000   3.14159
    D9        0.00000   0.00000   0.00000   0.00000   0.00000   0.00000
   D10        3.14159   0.00000   0.00000   0.00000   0.00000   3.14159
   D11        3.14159   0.00000   0.00000   0.00000   0.00000   3.14159
   D12        0.00000   0.00000   0.00000   0.00000   0.00000   0.00000
   D13        3.14159   0.00000   0.00000   0.00000   0.00000   3.14159
   D14        0.00000   0.00000   0.00000   0.00000   0.00000   0.00000
   D15        0.00000   0.00000   0.00000   0.00000   0.00000   0.00000
   D16        3.14159   0.00000   0.00000   0.00000   0.00000   3.14159
         Item               Value     Threshold  Converged?
 Maximum Force            0.000303     0.000450     YES
 RMS     Force            0.000111     0.000300     YES
 Maximum Displacement     0.000934     0.001800     YES
 RMS     Displacement     0.000355     0.001200     YES
 Predicted change in Energy=-8.094984D-07
 Optimization completed.
    -- Stationary point found.
                         ----------------------------
                         !   Optimized Parameters   !
                         ! (Angstroms and Degrees)  !
 ------------------------                            -------------------------
 ! Name  Definition              Value          Derivative Info.             !
 -----------------------------------------------------------------------------
 ! R1    R(1,5)                  1.4195         -DE/DX =    0.0003           !
 ! R2    R(1,8)                  1.347          -DE/DX =   -0.0001           !
 ! R3    R(2,9)                  1.013          -DE/DX =    0.0001           !
 ! R4    R(3,4)                  1.0774         -DE/DX =    0.0001           !
 ! R5    R(3,5)                  1.3839         -DE/DX =    0.0002           !
 ! R6    R(3,9)                  1.4047         -DE/DX =   -0.0003           !
 ! R7    R(5,6)                  1.0766         -DE/DX =    0.0001           !
 ! R8    R(7,8)                  1.0772         -DE/DX =    0.0002           !
 ! R9    R(8,9)                  1.3943         -DE/DX =   -0.0003           !
 ! A1    A(5,1,8)              104.9268         -DE/DX =    0.               !
 ! A2    A(4,3,5)              131.9358         -DE/DX =    0.               !
 ! A3    A(4,3,9)              122.3158         -DE/DX =    0.               !
 ! A4    A(5,3,9)              105.7484         -DE/DX =    0.               !
 ! A5    A(1,5,3)              110.6222         -DE/DX =   -0.0002           !
 ! A6    A(1,5,6)              121.1002         -DE/DX =    0.0001           !
 ! A7    A(3,5,6)              128.2776         -DE/DX =    0.0002           !
 ! A8    A(1,8,7)              125.8209         -DE/DX =    0.               !
 ! A9    A(1,8,9)              111.4353         -DE/DX =    0.0001           !
 ! A10   A(7,8,9)              122.7437         -DE/DX =    0.               !
 ! A11   A(2,9,3)              125.9508         -DE/DX =   -0.0001           !
 ! A12   A(2,9,8)              126.782          -DE/DX =   -0.0001           !
 ! A13   A(3,9,8)              107.2672         -DE/DX =    0.0001           !
 ! D1    D(8,1,5,3)              0.             -DE/DX =    0.               !
 ! D2    D(8,1,5,6)            180.             -DE/DX =    0.               !
 ! D3    D(5,1,8,7)            180.             -DE/DX =    0.               !
 ! D4    D(5,1,8,9)              0.             -DE/DX =    0.               !
 ! D5    D(4,3,5,1)            180.             -DE/DX =    0.               !
 ! D6    D(4,3,5,6)              0.             -DE/DX =    0.               !
 ! D7    D(9,3,5,1)              0.             -DE/DX =    0.               !
 ! D8    D(9,3,5,6)            180.             -DE/DX =    0.               !
 ! D9    D(4,3,9,2)              0.             -DE/DX =    0.               !
 ! D10   D(4,3,9,8)            180.             -DE/DX =    0.               !
 ! D11   D(5,3,9,2)            180.             -DE/DX =    0.               !
 ! D12   D(5,3,9,8)              0.             -DE/DX =    0.               !
 ! D13   D(1,8,9,2)            180.             -DE/DX =    0.               !
 ! D14   D(1,8,9,3)              0.             -DE/DX =    0.               !
 ! D15   D(7,8,9,2)              0.             -DE/DX =    0.               !
 ! D16   D(7,8,9,3)            180.             -DE/DX =    0.               !
 -----------------------------------------------------------------------------
 GradGradGradGradGradGradGradGradGradGradGradGradGradGradGradGradGradGrad

 1\1\GINC-QCHEM2\Freq\RMP2-FC\3-21G\C3H4N2\RDJ3\21-Oct-1999\0\\#N GEOM=
 ALLCHECK GUESS=TCHECK RMP2(FC)/3-21G FREQ\\1H imidazole C3H4N2 casno=2
 88324\\0,1\N,0.5105371418,0.,1.1541432515\H,0.4868984293,0.,-2.0831246
 209\C,-1.0388189384,0.,-0.5527359035\H,-1.9224625939,0.,-1.1691028814\
 C,-0.869226914,0.,0.8207683959\H,-1.6263160346,0.,1.5862681252\H,2.221
 9522053,0.,-0.1666053546\C,1.1534864226,0.,-0.0295258857\N,0.256217797
 1,0.,-1.0967825241\\Version=x86-Linux-G98RevA.4\State=1-A'\HF=-223.543
 13\MP2=-224.027873\RMSD=1.368e-09\RMSF=2.095e-04\Dipole=-0.137771,0.,-
 1.5532591\DipoleDeriv=-0.3120211,0.,0.0903202,0.,-0.2886438,0.,-0.0341
 485,0.,-0.4404343,0.2058158,0.,-0.0117703,0.,0.3893193,0.,-0.0080303,0
 .,0.2257552,0.0504532,0.,-0.1708852,0.,-0.1095692,0.,-0.1126769,0.,0.1
 890592,0.0265583,0.,-0.0395934,0.,0.1955068,0.,-0.0614074,0.,0.0462719
 ,0.1000888,0.,-0.197819,0.,-0.1526462,0.,-0.0304215,0.,0.0521743,0.012
 46,0.,0.0670304,0.,0.1623558,0.,0.0593436,0.,0.0359466,-0.0192956,0.,0
 .0170835,0.,0.1763007,0.,0.0386105,0.,0.0701196,0.1618205,0.,0.129055,
 0.,-0.0200276,0.,0.0609161,0.,0.4460016,-0.2258799,0.,0.1165788,0.,-0.
 3525958,0.,0.0878143,0.,-0.624894\Polar=44.2673564,0.,12.353304,-1.453
 2199,0.,40.981632\PG=CS [SG(C3H4N2)]\NImag=0\\0.39234655,0.,0.10248158
 ,-0.04701520,0.,0.46221325,-0.00286830,0.,-0.00811123,0.08289036,0.,0.
 00622867,0.,0.,0.01391917,-0.00321476,0.,-0.00145439,-0.08899261,0.,0.
 43982640,-0.03957511,0.,-0.02088897,0.00652901,0.,-0.00646078,0.718116
 58,0.,0.01734314,0.,0.,-0.00625613,0.,0.,0.11061263,-0.07481964,0.,-0.
 02731155,0.03027871,0.,-0.00038816,0.17442851,0.,0.70405316,0.00149604
 ,0.,0.00232184,-0.00010303,0.,0.00062870,-0.26431016,0.,-0.14446422,0.
 27751676,0.,0.00696705,0.,0.,-0.00113501,0.,0.,-0.01996367,0.,0.,0.018
 18448,-0.00364414,0.,-0.00381017,-0.00076624,0.,0.00000043,-0.15559883
 ,0.,-0.16777597,0.15518449,0.,0.16163871,-0.17473836,0.,0.00254402,-0.
 00879506,0.,-0.00156782,-0.09882547,0.,-0.01955706,0.00597622,0.,-0.02
 332598,0.60134236,0.,-0.06918075,0.,0.,0.00350081,0.,0.,-0.06361136,0.
 ,0.,-0.00245729,0.,0.,0.12901868,-0.03949905,0.,-0.09067893,0.00290386
 ,0.,0.00173492,-0.01944863,0.,-0.35136351,0.00407287,0.,0.00160608,-0.
 19336283,0.,0.75753039,-0.01741636,0.,0.02005373,0.00078546,0.,0.00003
 321,0.00913182,0.,-0.00909139,-0.00015659,0.,0.00100567,-0.20421302,0.
 ,0.15613470,0.21710543,0.,-0.00554621,0.,0.,0.00171051,0.,0.,-0.002034
 84,0.,0.,-0.00182770,0.,0.,-0.02695702,0.,0.,0.02255787,-0.01144535,0.
 ,0.01100356,0.00122654,0.,0.00017241,0.02227660,0.,-0.00766780,-0.0006
 9503,0.,-0.00065124,0.15806716,0.,-0.22533391,-0.16426344,0.,0.2266799
 0,-0.00539872,0.,-0.00103497,-0.00065801,0.,-0.00083824,0.00095150,0.,
 -0.00179918,-0.00032978,0.,0.00029441,0.00095966,0.,0.00122614,-0.0004
 3424,0.,-0.00002698,0.37998654,0.,-0.00520090,0.,0.,-0.00110107,0.,0.,
 0.00306788,0.,0.,0.00159302,0.,0.,0.00693040,0.,0.,0.00109536,0.,0.,0.
 02096191,0.02973180,0.,-0.00159028,0.00047353,0.,-0.00011983,-0.001215
 92,0.,-0.00597355,-0.00103414,0.,0.00123105,0.00272112,0.,-0.00410953,
 0.00156486,0.,0.00084773,-0.03917678,0.,0.06435326,-0.13985394,0.,0.06
 527690,0.01734484,0.,0.01637485,-0.09647938,0.,-0.00650342,-0.00290185
 ,0.,0.00507166,-0.10305564,0.,0.02767642,-0.00529002,0.,-0.00462501,-0
 .36403651,0.,0.03943267,0.87769910,0.,-0.07593886,0.,0.,-0.00674970,0.
 ,0.,0.01679236,0.,0.,0.00331399,0.,0.,0.01125468,0.,0.,0.00490649,0.,0
 .,-0.02496643,0.,0.,0.13487982,0.12440915,0.,-0.24660438,-0.01869760,0
 .,-0.00928368,-0.04105576,0.,-0.00954113,0.00311272,0.,-0.00623720,0.0
 6184260,0.,-0.01789270,-0.00150521,0.,-0.00009074,0.03537647,0.,-0.059
 40298,-0.07890947,0.,0.52908988,-0.01399181,0.,-0.01314613,-0.09512528
 ,0.,0.08403745,-0.23553879,0.,0.05152768,-0.01718762,0.,0.02177897,-0.
 01865069,0.,0.06029651,0.00048751,0.,-0.00051450,-0.01104043,0.,-0.032
 49715,-0.18342660,0.,-0.08457290,0.57447371,0.,0.02284627,0.,0.,-0.010
 11726,0.,0.,-0.05595001,0.,0.,-0.00467486,0.,0.,0.01150185,0.,0.,0.006
 09553,0.,0.,-0.00238017,0.,0.,-0.06349235,0.,0.,0.09617101,0.02549719,
 0.,-0.10176710,0.08168504,0.,-0.43048810,0.04796377,0.,-0.13403148,-0.
 01912724,0.,0.01399830,0.01263879,0.,-0.07149281,-0.00393213,0.,-0.004
 95991,0.00597912,0.,0.00476414,-0.06379460,0.,-0.18003706,-0.08690994,
 0.,0.90401402\\-0.00037832,0.,0.00008327,-0.00002095,0.,0.00008351,-0.
 00050231,0.,0.00031909,0.00010731,0.,0.00005371,0.00040093,0.,-0.00013
 717,0.00005581,0.,-0.00011017,-0.00014788,0.,0.00002658,0.00038990,0.,
 0.00017934,0.00009552,0.,-0.00049816\\\@

 WHEN YOU'VE SEEN ONE NUCLEAR WAR YOU'VE SEEN THEM ALL.
 Job cpu time:  0 days  0 hours  8 minutes 59.8 seconds.
 File lengths (MBytes):  RWF=  214 Int=    0 D2E=    0 Chk=    3 Scr=    1
 Normal termination of Gaussian 98.
