 Gaussian 09, Revision A.02,
 Gaussian 09:  AM64L-G09RevA.02 11-Jun-2009

 ------------------
 #MP2/TZVP opt freq
 ------------------

 --------------------------------------------------
 1H imidazole C3H4N2 casno=288324 method=3 basis=32
 --------------------------------------------------
 Symbolic Z-matrix:
 Charge =  0 Multiplicity = 1

 SCF Done:  E(RHF) =  -224.839222556     A.U. after   14 cycles
 E2 =    -0.7460478233D+00 EUMP2 =    -0.22558527037968D+03
 SCF Done:  E(RHF) =  -224.881675677     A.U. after   14 cycles
 E2 =    -0.7563078540D+00 EUMP2 =    -0.22563798353144D+03
 SCF Done:  E(RHF) =  -224.883144737     A.U. after   14 cycles
 E2 =    -0.7626113750D+00 EUMP2 =    -0.22564575611172D+03
 SCF Done:  E(RHF) =  -224.883766323     A.U. after   10 cycles
 E2 =    -0.7622147244D+00 EUMP2 =    -0.22564598104720D+03
 SCF Done:  E(RHF) =  -224.884101062     A.U. after   11 cycles
 E2 =    -0.7619467435D+00 EUMP2 =    -0.22564604780508D+03
 SCF Done:  E(RHF) =  -224.884264056     A.U. after   10 cycles
 E2 =    -0.7617905129D+00 EUMP2 =    -0.22564605456876D+03
 Optimization completed.
    -- Stationary point found.
 Normal termination of Gaussian 09 at Fri Feb  4 17:13:39 2011.

 ------------------------------------------------------------------
 #N Geom=AllCheck Guess=TCheck SCRF=Check GenChk RMP2(FC)/TZVP Freq
 ------------------------------------------------------------------

 1H imidazole C3H4N2 casno=288324 method=3 basis=32
 --------------------------------------------------
 Redundant internal coordinates taken from checkpoint file:
 /gaussian/Gau-25096.chk
 Charge =  0 Multiplicity = 1

                         Standard orientation:
 ---------------------------------------------------------------------
 Center     Atomic      Atomic             Coordinates (Angstroms)
 Number     Number       Type             X           Y           Z
 ---------------------------------------------------------------------
      1          7           0       -0.739724   -0.990563    0.000000
      2          1           0       -0.012521    2.111199    0.000000
      3          6           0        1.117226    0.304276    0.000000
      4          1           0        2.113858    0.708815    0.000000
      5          6           0        0.634593   -0.982375    0.000000
      6          1           0        1.199634   -1.898966    0.000000
      7          1           0       -2.097809    0.660971    0.000000
      8          6           0       -1.089335    0.282520    0.000000
      9          7           0        0.000000    1.103628    0.000000
 ---------------------------------------------------------------------

 SCF Done:  E(RHF) =  -224.884264056     A.U. after    1 cycles
 E2 =    -0.7617905128D+00 EUMP2 =    -0.22564605456861D+03
 E2 =    -0.7617905128D+00 EUMP2 =    -0.22564605456861D+03

 The electronic state is 1-A'.
 Alpha  occ. eigenvalues --  -15.62504 -15.54575 -11.29707 -11.26239 -11.24297
 Alpha  occ. eigenvalues --   -1.34384  -1.16886  -1.00848  -0.83130  -0.80127
 Alpha  occ. eigenvalues --   -0.76056  -0.61126  -0.60531  -0.59822  -0.57152
 Alpha  occ. eigenvalues --   -0.43777  -0.40020  -0.32072
 Alpha virt. eigenvalues --    0.12569   0.15916   0.18748   0.18976   0.20595
 Alpha virt. eigenvalues --    0.20640   0.23277   0.27026   0.30210   0.31800
 Alpha virt. eigenvalues --    0.34310   0.35981   0.38272   0.40275   0.42833

 Mulliken atomic charges:
              1
     1  N   -0.163901
     2  H    0.249715
     3  C   -0.153922
     4  H    0.126461
     5  C   -0.090193
     6  H    0.113518
     7  H    0.118703
     8  C   -0.042945
     9  N   -0.157436
 Sum of Mulliken atomic charges =   0.00000

 Dipole moment (field-independent basis, Debye):
    X=              1.1008    Y=              3.8512    Z=              0.0000  Tot=              4.0054
 Quadrupole moment (field-independent basis, Debye-Ang):
   XX=            -26.5545   YY=            -25.8688   ZZ=            -32.6275
   XY=             -3.6758   XZ=              0.0000   YZ=              0.0000

  Exact polarizability:  51.373  -0.757  49.221   0.000   0.000  28.072
 Approx polarizability:  45.635   0.810  47.955   0.000   0.000  28.842

                     1                      2                      3
                    A"                     A"                     A"
 Frequencies --   259.0140               546.0863               633.7290
 Red. masses --     2.0749                 2.5222                 1.4846
 Frc consts  --     0.0820                 0.4432                 0.3513
 IR Inten    --    48.9252                45.2979                 0.9471

                     4                      5                      6
                    A"                     A"                     A"
 Frequencies --   663.3240               701.8875               746.9926
 Red. masses --     2.5839                 1.1206                 1.1100
 Frc consts  --     0.6698                 0.3253                 0.3649
 IR Inten    --     3.9197                16.6014                79.7772

                     7                      8                      9
                    A'                     A'                     A'
 Frequencies --   906.4401               942.4469              1092.0000
 Red. masses --     5.4989                 4.5911                 1.5824
 Frc consts  --     2.6620                 2.4026                 1.1117
 IR Inten    --     5.6376                 2.0840                27.9837

                    10                     11                     12
                    A'                     A'                     A'
 Frequencies --  1112.8102              1161.9347              1183.5433
 Red. masses --     1.5056                 1.5119                 4.5748
 Frc consts  --     1.0985                 1.2027                 3.7756
 IR Inten    --    25.5968                 4.0686                 4.0610

                    13                     14                     15
                    A'                     A'                     A'
 Frequencies --  1293.0101              1377.5448              1465.0576
 Red. masses --     1.4323                 2.8996                 3.7649
 Frc consts  --     1.4109                 3.2419                 4.7611
 IR Inten    --     1.0988                 8.1294                19.2441

                    16                     17                     18
                    A'                     A'                     A'
 Frequencies --  1512.2758              1548.3006              3303.5724
 Red. masses --     3.0117                 2.9524                 1.0919
 Frc consts  --     4.0581                 4.1700                 7.0213
 IR Inten    --    21.1445                 7.1031                 3.2790

                    19                     20                     21
                    A'                     A'                     A'
 Frequencies --  3307.2011              3330.9607              3683.6628
 Red. masses --     1.0968                 1.1054                 1.0823
 Frc consts  --     7.0681                 7.2263                 8.6530
 IR Inten    --     0.6492                 0.6159                76.1782

 - Thermochemistry -
 -------------------
 Temperature   298.150 Kelvin.  Pressure   1.00000 Atm.
 Atom     1 has atomic number  7 and mass  14.00307

 Molecular mass:    68.03745 amu.
 Principal axes and moments of inertia in atomic units:
                           1         2         3
     Eigenvalues --   184.33297 192.63979 376.97276
           X            0.44596   0.89505   0.00000
           Y            0.89505  -0.44596   0.00000
           Z            0.00000   0.00000   1.00000
 This molecule is an asymmetric top.
 Rotational symmetry number  1.
 Rotational temperatures (Kelvin)      0.46988     0.44962     0.22976
 Rotational constants (GHZ):           9.79066     9.36848     4.78746
 Zero-point vibrational energy     184056.2 (Joules/Mol)
                                   43.99049 (Kcal/Mol)
 Warning -- explicit consideration of   2 degrees of freedom as
           vibrations may cause significant error
 Vibrational temperatures:    372.66   785.70   911.79   954.37  1009.86
          (Kelvin)           1074.75  1304.16  1355.97  1571.14  1601.08
                             1671.76  1702.85  1860.35  1981.98  2107.89
                             2175.82  2227.66  4753.10  4758.32  4792.50
                             5299.96

 Zero-point correction=                           0.070103 (Hartree/Particle)
 Thermal correction to Energy=                    0.074299
 Thermal correction to Enthalpy=                  0.075243
 Thermal correction to Gibbs Free Energy=         0.043525
 Sum of electronic and zero-point Energies=           -225.575951
 Sum of electronic and thermal Energies=              -225.571755
 Sum of electronic and thermal Enthalpies=            -225.570811
 Sum of electronic and thermal Free Energies=         -225.602530

                     E (Thermal)             CV                S
                      KCal/Mol        Cal/Mol-Kelvin    Cal/Mol-Kelvin
 Total                   46.623             14.712             66.758
 Electronic               0.000              0.000              0.000
 Translational            0.889              2.981             38.570
 Rotational               0.889              2.981             24.108
 Vibrational             44.846              8.750              4.080
 Vibration     1          0.668              1.748              1.668
 Vibration     2          0.901              1.148              0.552

 Optimization completed.
    -- Stationary point found.
 Normal termination of Gaussian 09 at Fri Feb  4 17:29:49 2011.
