 Gaussian 98, Revision A.4,
 Gaussian 98:  IBM-RS6000-G98RevA.4 11-Sep-1998

 ----------------------
 #MP2/6-31+G** opt freq
 ----------------------

 --------------------------------
 1H imidazole C3H4N2 casno=288324
 --------------------------------
 Symbolic Z-matrix:
 Charge =  0 Multiplicity = 1

 SCF Done:  E(RHF) =  -224.781629196     A.U. after   14 cycles
 E2 =    -0.7207019939D+00 EUMP2 =    -0.22550233118985D+03
 SCF Done:  E(RHF) =  -224.826872038     A.U. after   13 cycles
 E2 =    -0.7321738430D+00 EUMP2 =    -0.22555904588079D+03
 SCF Done:  E(RHF) =  -224.828559150     A.U. after   13 cycles
 E2 =    -0.7396119590D+00 EUMP2 =    -0.22556817110900D+03
 SCF Done:  E(RHF) =  -224.829089250     A.U. after   11 cycles
 E2 =    -0.7393075652D+00 EUMP2 =    -0.22556839681518D+03
 SCF Done:  E(RHF) =  -224.829396170     A.U. after   11 cycles
 E2 =    -0.7390611671D+00 EUMP2 =    -0.22556845733660D+03
 SCF Done:  E(RHF) =  -224.829541770     A.U. after   10 cycles
 E2 =    -0.7389213728D+00 EUMP2 =    -0.22556846314303D+03
 Optimization completed.
    -- Stationary point found.
 Normal termination of Gaussian 98.

 -------------------------------------------------------
 #N Geom=AllCheck Guess=TCheck RMP2(FC)/6-31+G(d,p) Freq
 -------------------------------------------------------

 1H imidazole C3H4N2 casno=288324
 --------------------------------
 Redundant internal coordinates taken from checkpointfile:
 /wrk/rdj3/Gau-14302.chk
 Charge =  0 Multiplicity = 1

                         Standard orientation:
 ---------------------------------------------------------------------
 Center     Atomic     Atomic              Coordinates (Angstroms)
 Number     Number      Type              X           Y           Z
 ---------------------------------------------------------------------
    1          7             0       -0.741012   -0.994358    0.000000
    2          1             0       -0.012449    2.114157    0.000000
    3          6             0        1.121092    0.306330    0.000000
    4          1             0        2.117729    0.711831    0.000000
    5          6             0        0.636789   -0.986079    0.000000
    6          1             0        1.202603   -1.902367    0.000000
    7          1             0       -2.102846    0.662753    0.000000
    8          6             0       -1.094206    0.285070    0.000000
    9          7             0        0.000000    1.106030    0.000000
 ---------------------------------------------------------------------

 SCF Done:  E(RHF) =  -224.829541770     A.U. after    1 cycles
 E2 =    -0.7389213729D+00 EUMP2 =    -0.22556846314313D+03

  The electronic state is 1-A'.
 Alpha  occ. eigenvalues --  -15.63685 -15.55809 -11.30514 -11.27049 -11.25086
 Alpha  occ. eigenvalues --   -1.34259  -1.16902  -1.00920  -0.83257  -0.80184
 Alpha  occ. eigenvalues --   -0.76089  -0.61085  -0.60631  -0.59674  -0.57246
 Alpha  occ. eigenvalues --   -0.43829  -0.40000  -0.32002
 Alpha virt. eigenvalues --    0.06325   0.08132   0.09664   0.09966   0.10951
 Alpha virt. eigenvalues --    0.11759   0.13435   0.14405   0.15559   0.15912
 Alpha virt. eigenvalues --    0.19257   0.19981   0.21244   0.22209   0.23558

  Exact polarizability:  53.431  -0.091  51.305   0.000   0.000  30.964
 Approx polarizability:  46.859   1.001  49.150   0.000   0.000  30.040

                     1                      2                      3
                    A"                     A"                     A"
 Frequencies --   474.9298               615.1958               666.4114
 Red. masses --     1.8774                 3.2029                 2.7449
 Frc consts  --     0.2495                 0.7142                 0.7182
 IR Inten    --    74.2132                34.2502                 0.0950
 Raman Activ --     0.0000                 0.0000                 0.0000

                     4                      5                      6
                    A"                     A"                     A"
 Frequencies --   686.0758               760.8852               807.4309
 Red. masses --     1.1991                 1.1903                 1.1766
 Frc consts  --     0.3325                 0.4060                 0.4520
 IR Inten    --    22.9251                61.4013                29.7987
 Raman Activ --     0.0000                 0.0000                 0.0000

                     7                      8                      9
                    A'                     A'                     A'
 Frequencies --   899.4367               938.4043              1097.3996
 Red. masses --     5.5892                 4.7919                 1.5682
 Frc consts  --     2.6640                 2.4862                 1.1127
 IR Inten    --     4.7455                 2.5135                29.7241
 Raman Activ --     0.0000                 0.0000                 0.0000

                    10                     11                     12
                    A'                     A'                     A'
 Frequencies --  1121.3352              1168.8869              1191.7619
 Red. masses --     1.4866                 1.5561                 3.9477
 Frc consts  --     1.1013                 1.2526                 3.3035
 IR Inten    --    26.3287                 3.7722                 2.7646
 Raman Activ --     0.0000                 0.0000                 0.0000

                    13                     14                     15
                    A'                     A'                     A'
 Frequencies --  1297.1564              1394.9608              1486.0404
 Red. masses --     1.4165                 2.9836                 3.8616
 Frc consts  --     1.4043                 3.4207                 5.0243
 IR Inten    --     1.0976                 8.5321                19.5372
 Raman Activ --     0.0000                 0.0000                 0.0000

                    16                     17                     18
                    A'                     A'                     A'
 Frequencies --  1524.3236              1560.4206              3335.5467
 Red. masses --     3.0817                 2.9650                 1.0917
 Frc consts  --     4.2189                 4.2536                 7.1564
 IR Inten    --    26.2053                 6.3866                 2.6296
 Raman Activ --     0.0000                 0.0000                 0.0000

                    19                     20                     21
                    A'                     A'                     A'
 Frequencies --  3342.7193              3360.7941              3724.4275
 Red. masses --     1.0968                 1.1056                 1.0826
 Frc consts  --     7.2204                 7.3574                 8.8477
 IR Inten    --     0.8450                 0.8094                77.2626
 Raman Activ --     0.0000                 0.0000                 0.0000

 - Thermochemistry -
 -------------------
 Temperature   298.150 Kelvin.  Pressure   1.00000 Atm.
 Atom  1 has atomic number  7 and mass  14.00307

 Molecular mass:    68.03745 amu.
 Principal axes and moments of inertia in atomic units:
                           1         2         3
     EIGENVALUES --   185.56851 193.79138 379.35989
           X            0.44368   0.89619   0.00000
           Y            0.89619  -0.44368   0.00000
           Z            0.00000   0.00000   1.00000
 THIS MOLECULE IS AN ASYMMETRIC TOP.
 ROTATIONAL SYMMETRY NUMBER  1.
 ROTATIONAL TEMPERATURES (KELVIN)      0.46675     0.44694     0.22831
 ROTATIONAL CONSTANTS (GHZ)            9.72547     9.31280     4.75733
 Zero-point vibrational energy     188140.0 (Joules/Mol)
                                   44.96653 (Kcal/Mol)
 WARNING-- EXPLICIT CONSIDERATION OF   2 DEGREES OF FREEDOM AS
           VIBRATIONS MAY CAUSE SIGNIFICANT ERROR
 VIBRATIONAL TEMPERATURES:    683.31   885.12   958.81   987.10  1094.74
          (KELVIN)           1161.71  1294.08  1350.15  1578.90  1613.34
                             1681.76  1714.67  1866.31  2007.03  2138.07
                             2193.15  2245.08  4799.08  4809.40  4835.41
                             5358.59

 Zero-point correction=                           0.071659 (Hartree/Particle)
 Thermal correction to Energy=                    0.075516
 Thermal correction to Enthalpy=                  0.076460
 Thermal correction to Gibbs Free Energy=         0.045336
 Sum of electronic and zero-point Energies=           -225.496804
 Sum of electronic and thermal Energies=              -225.492947
 Sum of electronic and thermal Enthalpies=            -225.492003
 Sum of electronic and thermal Free Energies=         -225.523128

                     E (Thermal)             CV                S
                      KCAL/MOL        CAL/MOL-KELVIN    CAL/MOL-KELVIN
 TOTAL                   47.387             13.771             65.507
 ELECTRONIC               0.000              0.000              0.000
 TRANSLATIONAL            0.889              2.981             38.570
 ROTATIONAL               0.889              2.981             24.127
 VIBRATIONAL             45.610              7.809              2.810
 VIBRATION  1             0.832              1.306              0.724
 VIBRATION  2             0.975              1.000              0.424
                       Q            LOG10(Q)             LN(Q)
 TOTAL BOT       0.140359D-20        -20.852758        -48.015250
 TOTAL V=0       0.128158D+13         12.107746         27.879116
 VIB (BOT)       0.152183D-32        -32.817635        -75.565398
 VIB (BOT)  1    0.353680D+00         -0.451389         -1.039363
 VIB (BOT)  2    0.238920D+00         -0.621747         -1.431626
 VIB (V=0)       0.138953D+01          0.142869          0.328969
 VIB (V=0)  1    0.111245D+01          0.046279          0.106561
 VIB (V=0)  2    0.105415D+01          0.022903          0.052735
 ELECTRONIC      0.100000D+01          0.000000          0.000000
 TRANSLATIONAL   0.220588D+08          7.343582         16.909224
 ROTATIONAL      0.418114D+05          4.621294         10.640924
 ***** Axes restored to original set *****
 -------------------------------------------------------------------
 Center     Atomic                   Forces (Hartrees/Bohr)
 Number     Number              X              Y              Z
 -------------------------------------------------------------------
    1          7           0.000197852    0.000000000    0.000013484
    2          1          -0.000013224    0.000000000   -0.000010821
    3          6           0.000211902    0.000000000   -0.000086364
    4          1          -0.000039088    0.000000000   -0.000011876
    5          6          -0.000216054    0.000000000   -0.000038938
    6          1          -0.000002573    0.000000000    0.000051709
    7          1           0.000058257    0.000000000   -0.000014320
    8          6          -0.000234325    0.000000000   -0.000111030
    9          7           0.000037252    0.000000000    0.000208156
 -------------------------------------------------------------------
 Cartesian Forces:  Max     0.000234325 RMS     0.000098145

 GradGradGradGradGradGradGradGradGradGradGradGradGradGradGradGradGradGrad
 Berny optimization.
 Internal  Forces:  Max     0.000177603 RMS     0.000050531
 Search for a local minimum.
 Step number   1 out of a maximum of  48
 All quantities printed in internal units (Hartrees-Bohrs-Radians)
 Second derivative matrix not updated -- analytic derivatives used.
     Eigenvalues ---    0.00431   0.00901   0.01790   0.02584   0.05342
     Eigenvalues ---    0.05763   0.09997   0.10721   0.11236   0.12077
     Eigenvalues ---    0.23637   0.25674   0.35680   0.38876   0.39296
     Eigenvalues ---    0.39509   0.40833   0.46537   0.48358   0.49542
     Eigenvalues ---    0.564221000.000001000.000001000.000001000.00000
     Eigenvalues --- 1000.000001000.000001000.000001000.000001000.00000
     Eigenvalues --- 1000.000001000.000001000.000001000.000001000.00000
     Eigenvalues --- 1000.000001000.000001000.00000
 Angle between quadratic step and forces=  26.45 degrees.
 Linear search not attempted -- first point.
 Iteration  1 RMS(Cart)=  0.00014016 RMS(Int)=  0.00000002
 Iteration  2 RMS(Cart)=  0.00000002 RMS(Int)=  0.00000000
 Variable       Old X    -DE/DX   Delta X   Delta X   Delta X     New X
                                 (Linear)    (Quad)   (Total)
    R1        2.60371   0.00014   0.00000   0.00051   0.00051   2.60422
    R2        2.50820  -0.00003   0.00000  -0.00007  -0.00007   2.50814
    R3        1.90523   0.00001   0.00000   0.00001   0.00001   1.90524
    R4        2.03329   0.00004   0.00000   0.00010   0.00010   2.03340
    R5        2.60814   0.00002   0.00000   0.00004   0.00004   2.60819
    R6        2.60232  -0.00012   0.00000  -0.00030  -0.00030   2.60202
    R7        2.03506   0.00004   0.00000   0.00008   0.00008   2.03514
    R8        2.03530   0.00006   0.00000   0.00016   0.00016   2.03546
    R9        2.58503  -0.00018   0.00000  -0.00045  -0.00045   2.58458
    A1        1.83414  -0.00004   0.00000  -0.00013  -0.00013   1.83400
    A2        2.31574  -0.00003   0.00000  -0.00022  -0.00022   2.31552
    A3        2.13557   0.00000   0.00000   0.00010   0.00010   2.13567
    A4        1.83187   0.00002   0.00000   0.00012   0.00012   1.83200
    A5        1.93534  -0.00008   0.00000  -0.00026  -0.00026   1.93508
    A6        2.11798   0.00001   0.00000  -0.00026  -0.00026   2.11772
    A7        2.22987   0.00008   0.00000   0.00052   0.00052   2.23038
    A8        2.19843  -0.00002   0.00000  -0.00008  -0.00008   2.19835
    A9        1.94513   0.00005   0.00000   0.00016   0.00016   1.94529
   A10        2.13963  -0.00003   0.00000  -0.00009  -0.00009   2.13954
   A11        2.20276  -0.00004   0.00000  -0.00021  -0.00021   2.20255
   A12        2.20213  -0.00001   0.00000   0.00010   0.00010   2.20223
   A13        1.87830   0.00005   0.00000   0.00011   0.00011   1.87841
    D1        0.00000   0.00000   0.00000   0.00000   0.00000   0.00000
    D2        3.14159   0.00000   0.00000   0.00000   0.00000   3.14159
    D3        3.14159   0.00000   0.00000   0.00000   0.00000   3.14159
    D4        0.00000   0.00000   0.00000   0.00000   0.00000   0.00000
    D5        3.14159   0.00000   0.00000   0.00000   0.00000   3.14159
    D6        0.00000   0.00000   0.00000   0.00000   0.00000   0.00000
    D7        0.00000   0.00000   0.00000   0.00000   0.00000   0.00000
    D8        3.14159   0.00000   0.00000   0.00000   0.00000   3.14159
    D9        0.00000   0.00000   0.00000   0.00000   0.00000   0.00000
   D10        3.14159   0.00000   0.00000   0.00000   0.00000   3.14159
   D11        3.14159   0.00000   0.00000   0.00000   0.00000   3.14159
   D12        0.00000   0.00000   0.00000   0.00000   0.00000   0.00000
   D13        3.14159   0.00000   0.00000   0.00000   0.00000   3.14159
   D14        0.00000   0.00000   0.00000   0.00000   0.00000   0.00000
   D15        0.00000   0.00000   0.00000   0.00000   0.00000   0.00000
   D16        3.14159   0.00000   0.00000   0.00000   0.00000   3.14159
         Item               Value     Threshold  Converged?
 Maximum Force            0.000178     0.000450     YES
 RMS     Force            0.000051     0.000300     YES
 Maximum Displacement     0.000406     0.001800     YES
 RMS     Displacement     0.000140     0.001200     YES
 Predicted change in Energy=-1.527841D-07
 Optimization completed.
    -- Stationary point found.
                         ----------------------------
                         !   Optimized Parameters   !
                         ! (Angstroms and Degrees)  !
 ------------------------                            -------------------------
 ! Name  Definition              Value          Derivative Info.             !
 -----------------------------------------------------------------------------
 ! R1    R(1,5)                  1.3778         -DE/DX =    0.0001           !
 ! R2    R(1,8)                  1.3273         -DE/DX =    0.               !
 ! R3    R(2,9)                  1.0082         -DE/DX =    0.               !
 ! R4    R(3,4)                  1.076          -DE/DX =    0.               !
 ! R5    R(3,5)                  1.3802         -DE/DX =    0.               !
 ! R6    R(3,9)                  1.3771         -DE/DX =   -0.0001           !
 ! R7    R(5,6)                  1.0769         -DE/DX =    0.               !
 ! R8    R(7,8)                  1.077          -DE/DX =    0.0001           !
 ! R9    R(8,9)                  1.3679         -DE/DX =   -0.0002           !
 ! A1    A(5,1,8)              105.0882         -DE/DX =    0.               !
 ! A2    A(4,3,5)              132.6823         -DE/DX =    0.               !
 ! A3    A(4,3,9)              122.359          -DE/DX =    0.               !
 ! A4    A(5,3,9)              104.9587         -DE/DX =    0.               !
 ! A5    A(1,5,3)              110.8867         -DE/DX =   -0.0001           !
 ! A6    A(1,5,6)              121.3514         -DE/DX =    0.               !
 ! A7    A(3,5,6)              127.7619         -DE/DX =    0.0001           !
 ! A8    A(1,8,7)              125.9608         -DE/DX =    0.               !
 ! A9    A(1,8,9)              111.4477         -DE/DX =    0.0001           !
 ! A10   A(7,8,9)              122.5915         -DE/DX =    0.               !
 ! A11   A(2,9,3)              126.2086         -DE/DX =    0.               !
 ! A12   A(2,9,8)              126.1726         -DE/DX =    0.               !
 ! A13   A(3,9,8)              107.6188         -DE/DX =    0.               !
 ! D1    D(8,1,5,3)              0.             -DE/DX =    0.               !
 ! D2    D(8,1,5,6)            180.             -DE/DX =    0.               !
 ! D3    D(5,1,8,7)            180.             -DE/DX =    0.               !
 ! D4    D(5,1,8,9)              0.             -DE/DX =    0.               !
 ! D5    D(4,3,5,1)            180.             -DE/DX =    0.               !
 ! D6    D(4,3,5,6)              0.             -DE/DX =    0.               !
 ! D7    D(9,3,5,1)              0.             -DE/DX =    0.               !
 ! D8    D(9,3,5,6)            180.             -DE/DX =    0.               !
 ! D9    D(4,3,9,2)              0.             -DE/DX =    0.               !
 ! D10   D(4,3,9,8)            180.             -DE/DX =    0.               !
 ! D11   D(5,3,9,2)            180.             -DE/DX =    0.               !
 ! D12   D(5,3,9,8)              0.             -DE/DX =    0.               !
 ! D13   D(1,8,9,2)            180.             -DE/DX =    0.               !
 ! D14   D(1,8,9,3)              0.             -DE/DX =    0.               !
 ! D15   D(7,8,9,2)              0.             -DE/DX =    0.               !
 ! D16   D(7,8,9,3)            180.             -DE/DX =    0.               !
 -----------------------------------------------------------------------------
 GradGradGradGradGradGradGradGradGradGradGradGradGradGradGradGradGradGrad

 1\1\GINC-AURUM\Freq\RMP2-FC\6-31+G(d,p)\C3H4N2\RDJ3\25-Apr-2000\0\\#N
 GEOM=ALLCHECK GUESS=TCHECK RMP2(FC)/6-31+G(D,P) FREQ\\1H imidazole C3H
 4N2 casno=288324\\0,1\N,0.4968561498,0.,1.1362134026\H,0.4903962,0.,-2
 .0565331025\C,-1.022729577,0.,-0.5520047308\H,-1.9017961618,0.,-1.1724
 554859\C,-0.8433538849,0.,0.8164599209\H,-1.6017845654,0.,1.580993088\
 H,2.1982609801,0.,-0.1698609493\C,1.1303283367,0.,-0.0301455367\N,0.25
 020875,0.,-1.0773564698\\Version=IBM-RS6000-G98RevA.4\State=1-A'\HF=-2
 24.8295418\MP2=-225.5684631\RMSD=1.235e-09\RMSF=9.815e-05\Dipole=-0.15
 60453,0.,-1.578544\DipoleDeriv=-0.3139934,0.,0.0271763,0.,-0.3081589,0
 .,-0.0731288,0.,-0.5522674,0.1936994,0.,-0.0160911,0.,0.3437462,0.,-0.
 0100844,0.,0.2346683,0.0401529,0.,-0.227887,0.,-0.1631161,0.,-0.124447
 2,0.,0.1747703,0.03089,0.,-0.0350977,0.,0.2146101,0.,-0.0582206,0.,0.0
 409245,0.1680281,0.,-0.0074402,0.,-0.1542382,0.,-0.0254258,0.,0.101914
 8,0.0010566,0.,0.0462222,0.,0.1735204,0.,0.0682353,0.,0.0368193,-0.002
 6869,0.,0.0321114,0.,0.1827686,0.,0.0298025,0.,0.0578885,0.0475454,0.,
 0.0621284,0.,-0.0434948,0.,0.1299973,0.,0.6103752,-0.164692,0.,0.11887
 76,0.,-0.2456372,0.,0.0632717,0.,-0.7050934\Polar=53.3623972,0.,30.963
 9899,0.3864732,0.,51.3733238\PG=CS [SG(C3H4N2)]\NImag=0\\0.51184502,0.
 ,0.09564949,-0.05695743,0.,0.55765424,-0.00311506,0.,-0.00833877,0.083
 87896,0.,0.00735547,0.,0.,0.01077083,-0.00351866,0.,-0.00265474,-0.100
 62025,0.,0.46777062,-0.03304151,0.,-0.01960829,0.00671239,0.,-0.005142
 57,0.78108334,0.,0.01262112,0.,0.,-0.00890599,0.,0.,0.08454746,-0.0784
 1412,0.,-0.01996904,0.02897264,0.,-0.00045173,0.15192808,0.,0.75018739
 ,0.00136987,0.,0.00177902,0.00031043,0.,-0.00011437,-0.26884350,0.,-0.
 14780181,0.28206938,0.,0.00746551,0.,0.,-0.00095272,0.,0.,-0.01476255,
 0.,0.,0.01626778,-0.00425487,0.,-0.00531956,-0.00090759,0.,0.00015052,
 -0.15900383,0.,-0.17286061,0.16086173,0.,0.16473552,-0.28092565,0.,-0.
 03231851,-0.00884545,0.,-0.00057792,-0.09968536,0.,-0.02154825,0.00579
 149,0.,-0.02171309,0.68903114,0.,-0.06108742,0.,0.,0.00277075,0.,0.,-0
 .04614297,0.,0.,-0.00504528,0.,0.,0.10993203,-0.05800796,0.,-0.1101893
 3,0.00358701,0.,0.00100594,-0.02786873,0.,-0.38980632,0.00262166,0.,0.
 00312473,-0.15793469,0.,0.80281579,-0.01872533,0.,0.02172965,0.0008549
 2,0.,-0.00004312,0.00893140,0.,-0.00730756,-0.00026048,0.,0.00063794,-
 0.20587813,0.,0.15651827,0.22136492,0.,-0.00676342,0.,0.,0.00205076,0.
 ,0.,-0.00395570,0.,0.,-0.00136447,0.,0.,-0.02361064,0.,0.,0.02144418,-
 0.00906530,0.,0.01187053,0.00129421,0.,0.00026814,0.02074522,0.,-0.006
 79738,-0.00040645,0.,-0.00009147,0.16011792,0.,-0.22721091,-0.16766636
 ,0.,0.22652919,-0.00683795,0.,0.00104554,-0.00053922,0.,-0.00021499,0.
 00073197,0.,-0.00252609,-0.00028769,0.,0.00041581,0.00087227,0.,0.0020
 7208,-0.00029315,0.,-0.00024630,0.38712134,0.,-0.00685646,0.,0.,-0.000
 84546,0.,0.,0.00335955,0.,0.,0.00198317,0.,0.,0.00651342,0.,0.,0.00130
 426,0.,0.,0.01896950,0.02973760,0.,0.00093825,0.00051352,0.,0.00038833
 ,-0.00149755,0.,-0.00610152,-0.00110729,0.,0.00109874,0.00342509,0.,-0
 .00496108,0.00152146,0.,0.00078405,-0.04164944,0.,0.06409003,-0.158208
 30,0.,0.10597371,0.01734546,0.,0.01553838,-0.08692619,0.,0.00100156,-0
 .00318342,0.,0.00458835,-0.08722726,0.,0.01723391,-0.00643431,0.,-0.00
 407246,-0.36932580,0.,0.03995527,0.91078193,0.,-0.06738101,0.,0.,-0.01
 057387,0.,0.,0.01185964,0.,0.,0.00308716,0.,0.,0.00991182,0.,0.,0.0051
 8029,0.,0.,-0.01932420,0.,0.,0.11259928,0.15072555,0.,-0.33418171,-0.0
 1803133,0.,-0.00930400,-0.03534279,0.,-0.00984435,0.00367393,0.,-0.005
 37235,0.05911418,0.,-0.00627405,-0.00178792,0.,0.00037114,0.03594473,0
 .,-0.06290493,-0.06992453,0.,0.65449357,-0.01236109,0.,-0.01330492,-0.
 09660243,0.,0.09469351,-0.30896254,0.,0.07569556,-0.01696608,0.,0.0193
 7555,-0.01313306,0.,0.06177845,0.00044016,0.,-0.00070049,-0.01144177,0
 .,-0.03089865,-0.21682212,0.,-0.12437183,0.67584893,0.,0.01899671,0.,0
 .,-0.00166977,0.,0.,-0.03862056,0.,0.,-0.00667861,0.,0.,0.00675829,0.,
 0.,0.00571475,0.,0.,-0.00510378,0.,0.,-0.04535910,0.,0.,0.06596207,0.0
 2975521,0.,-0.09814863,0.09353057,0.,-0.45717308,0.07579045,0.,-0.1443
 5644,-0.01950643,0.,0.01453448,0.01143527,0.,-0.06850477,-0.00360237,0
 .,-0.00572329,0.00515867,0.,0.00666813,-0.11029418,0.,-0.22698333,-0.0
 8226718,0.,0.97968693\\-0.00019785,0.,-0.00001348,0.00001322,0.,0.0000
 1082,-0.00021190,0.,0.00008636,0.00003909,0.,0.00001188,0.00021605,0.,
 0.00003894,0.00000257,0.,-0.00005171,-0.00005826,0.,0.00001432,0.00023
 432,0.,0.00011103,-0.00003725,0.,-0.00020816\\\@

 I WOULD TAKE COUNSEL OF MYSELF.
 I WOULD STOP AND LOOK WITHIN
 AND LOOKING WITHIN, LOOK BACK, ALSO
 THAT I MAY LOOK AHEAD WITH CLEARER UNDERSTANDING
 OF THE WAY I HAVE BEEN MOVING, AND IN WHAT DIRECTION.
 I NEED TO KNOW IF I AM GOING FORWARD OR RETREATING,
 WHETHER I HAVE BEEN WASTING, OR ENJOYING
 THE PRECIOUS MOMENTS OF LIFE.  THERE HAVE BEEN FRICTIONS,
 ANNOYANCES AND SOMETIMES WRATH,
 BUT WERE THEY BECAUSE I WAS RIGHT AND OTHERS WRONG.....
 HAVE I HAD MY THOUGHTS TOO SHARPLY FOCUSED
 ON THAT WHICH PLEASED ME, SERVED MY SELF-ESTEEM,
 UNDERGIRDED MY SECURITY,
 OF WHICH I DID NOT INQUIRE WHETHER IT SERVED OR HAMPERED OTHERS.....
 HAVE I BEEN TRYING TO STOP THE CLOCK
 TO HOLD THE WORLD
 IN PERPETUATION OF WHAT WAS AN IS ALREADY SLIPPING AWAY.....
 HAVE I BEEN CRITICAL OF OTHERS FOR WHAT REALLY NEEDED CHANGING IN ME...
 LET ME INDEED TAKE COUNSEL OF MYSELF
 AND SET MY DIRECTIONS STRAIGHT.

                          R.T. WESTON AS ADAPTED BY D. OSBORN 1967
 Job cpu time:  0 days  1 hours 15 minutes 10.4 seconds.
 File lengths (MBytes):  RWF= 1025 Int=    0 D2E=    0 Chk=    4 Scr=    1
 Normal termination of Gaussian 98.
