 Gaussian 98, Revision A.6,
 Gaussian 98:  SGI-G98RevA.6 19-Oct-1998

 -------------------
 #MP2/6-31G opt freq
 -------------------

 --------------------------------
 1H imidazole C3H4N2 casno=288324
 --------------------------------
 Symbolic Z-matrix:
 Charge =  0 Multiplicity = 1

 SCF Done:  E(RHF) =  -224.653266327     A.U. after   13 cycles
 E2 =    -0.4481777358D+00 EUMP2 =    -0.22510144406308D+03
 SCF Done:  E(RHF) =  -224.702937589     A.U. after   13 cycles
 E2 =    -0.4696882582D+00 EUMP2 =    -0.22517262584688D+03
 SCF Done:  E(RHF) =  -224.700713976     A.U. after   13 cycles
 E2 =    -0.4902153767D+00 EUMP2 =    -0.22519092935313D+03
 SCF Done:  E(RHF) =  -224.701921887     A.U. after   12 cycles
 E2 =    -0.4895144961D+00 EUMP2 =    -0.22519143638280D+03
 SCF Done:  E(RHF) =  -224.702329109     A.U. after   12 cycles
 E2 =    -0.4892779084D+00 EUMP2 =    -0.22519160701744D+03
 SCF Done:  E(RHF) =  -224.702522170     A.U. after   12 cycles
 E2 =    -0.4891106444D+00 EUMP2 =    -0.22519163281481D+03
 SCF Done:  E(RHF) =  -224.702542267     A.U. after    9 cycles
 E2 =    -0.4890918355D+00 EUMP2 =    -0.22519163410300D+03
 Optimization completed.
    -- Stationary point found.
 Normal termination of Gaussian 98.

 -------------------------------------------------
 #N Geom=AllCheck Guess=TCheck RMP2(FC)/6-31G Freq
 -------------------------------------------------

 1H imidazole C3H4N2 casno=288324
 --------------------------------
 Redundant internal coordinates taken from checkpointfile:
 /wrk/Gau-2893722.chk
 Charge =  0 Multiplicity = 1

                         Standard orientation:
 ---------------------------------------------------------------------
 Center     Atomic     Atomic              Coordinates (Angstroms)
 Number     Number      Type              X           Y           Z
 ---------------------------------------------------------------------
    1          7             0       -0.756665   -1.007053    0.000000
    2          1             0       -0.004640    2.134155    0.000000
    3          6             0        1.139082    0.305205    0.000000
    4          1             0        2.142434    0.710077    0.000000
    5          6             0        0.657876   -0.999376    0.000000
    6          1             0        1.216893   -1.924483    0.000000
    7          1             0       -2.132799    0.666838    0.000000
    8          6             0       -1.117831    0.294029    0.000000
    9          7             0        0.000000    1.123375    0.000000
 ---------------------------------------------------------------------

 SCF Done:  E(RHF) =  -224.702542267     A.U. after    1 cycles
 E2 =    -0.4890918356D+00 EUMP2 =    -0.22519163410303D+03

  The electronic state is 1-A'.
 Alpha  occ. eigenvalues --  -15.63238 -15.56665 -11.31359 -11.28125 -11.25754
 Alpha  occ. eigenvalues --   -1.33345  -1.16137  -1.00883  -0.82562  -0.79438
 Alpha  occ. eigenvalues --   -0.75591  -0.60412  -0.60236  -0.58678  -0.56720
 Alpha  occ. eigenvalues --   -0.42539  -0.39062  -0.32323
 Alpha virt. eigenvalues --    0.16860   0.21395   0.22553   0.27256   0.28826
 Alpha virt. eigenvalues --    0.31071   0.37622   0.39403   0.47814   0.51157
 Alpha virt. eigenvalues --    0.64525   0.75360   0.76925   0.82104   0.82593

  Exact polarizability:  46.383  -1.531  44.911   0.000   0.000  15.532
 Approx polarizability:  42.616   0.736  46.673   0.000   0.000  14.544

                     1                      2                      3
                    A"                     A"                     A"
 Frequencies --   574.3429               629.7080               656.3669
 Red. masses --     2.4104                 2.1219                 1.4207
 Frc consts  --     0.4685                 0.4957                 0.3606
 IR Inten    --    91.5309                79.5799                 8.8312
 Raman Activ --     0.0000                 0.0000                 0.0000

                     4                      5                      6
                    A"                     A"                     A"
 Frequencies --   670.8923               736.6393               791.3902
 Red. masses --     1.7803                 1.3196                 1.2084
 Frc consts  --     0.4721                 0.4219                 0.4459
 IR Inten    --     4.6417                47.3552                30.1080
 Raman Activ --     0.0000                 0.0000                 0.0000

                     7                      8                      9
                    A'                     A'                     A'
 Frequencies --   909.8074               944.4591              1056.6832
 Red. masses --     6.2106                 4.6544                 2.1856
 Frc consts  --     3.0289                 2.4461                 1.4379
 IR Inten    --     7.0397                 3.6098                22.9414
 Raman Activ --     0.0000                 0.0000                 0.0000

                    10                     11                     12
                    A'                     A'                     A'
 Frequencies --  1106.8459              1114.7819              1173.3510
 Red. masses --     2.6047                 2.7617                 1.4140
 Frc consts  --     1.8801                 2.0222                 1.1469
 IR Inten    --    15.3053                14.1281                 0.6725
 Raman Activ --     0.0000                 0.0000                 0.0000

                    13                     14                     15
                    A'                     A'                     A'
 Frequencies --  1265.9026              1341.3313              1430.3961
 Red. masses --     1.8342                 2.0482                 2.6172
 Frc consts  --     1.7318                 2.1711                 3.1550
 IR Inten    --     6.0215                10.4192                19.6549
 Raman Activ --     0.0000                 0.0000                 0.0000

                    16                     17                     18
                    A'                     A'                     A'
 Frequencies --  1472.7561              1537.0682              3297.9434
 Red. masses --     2.3962                 2.2663                 1.0927
 Frc consts  --     3.0622                 3.1547                 7.0023
 IR Inten    --     9.3931                20.2651                 1.2859
 Raman Activ --     0.0000                 0.0000                 0.0000

                    19                     20                     21
                    A'                     A'                     A'
 Frequencies --  3309.9443              3323.8901              3677.6070
 Red. masses --     1.0971                 1.1082                 1.0827
 Frc consts  --     7.0819                 7.2136                 8.6276
 IR Inten    --     2.9664                 1.6021                63.0680
 Raman Activ --     0.0000                 0.0000                 0.0000

 - Thermochemistry -
 -------------------
 Temperature   298.150 Kelvin.  Pressure   1.00000 Atm.
 Atom  1 has atomic number  7 and mass  14.00307

 Molecular mass:    68.03745 amu.
 Principal axes and moments of inertia in atomic units:
                           1         2         3
     EIGENVALUES --   192.98569 198.80484 391.79054
           X            0.50479   0.86324   0.00000
           Y            0.86324  -0.50479   0.00000
           Z            0.00000   0.00000   1.00000
 THIS MOLECULE IS AN ASYMMETRIC TOP.
 ROTATIONAL SYMMETRY NUMBER  1.
 ROTATIONAL TEMPERATURES (KELVIN)      0.44881     0.43567     0.22107
 ROTATIONAL CONSTANTS (GHZ)            9.35168     9.07795     4.60639
 Zero-point vibrational energy     185553.4 (Joules/Mol)
                                   44.34833 (Kcal/Mol)
 WARNING-- EXPLICIT CONSIDERATION OF   1 DEGREES OF FREEDOM AS
           VIBRATIONS MAY CAUSE SIGNIFICANT ERROR
 VIBRATIONAL TEMPERATURES:    826.35   906.00   944.36   965.26  1059.85
          (KELVIN)           1138.63  1309.00  1358.86  1520.32  1592.50
                             1603.91  1688.18  1821.34  1929.87  2058.01
                             2118.96  2211.49  4744.98  4762.24  4782.31
                             5291.23

 Zero-point correction=                           0.070674 (Hartree/Particle)
 Thermal correction to Energy=                    0.074493
 Thermal correction to Enthalpy=                  0.075438
 Thermal correction to Gibbs Free Energy=         0.044336
 Sum of electronic and zero-point Energies=           -225.120961
 Sum of electronic and thermal Energies=              -225.117141
 Sum of electronic and thermal Enthalpies=            -225.116196
 Sum of electronic and thermal Free Energies=         -225.147299

                     E (Thermal)             CV                S
                      KCAL/MOL        CAL/MOL-KELVIN    CAL/MOL-KELVIN
 TOTAL                   46.745             13.796             65.460
 ELECTRONIC               0.000              0.000              0.000
 TRANSLATIONAL            0.889              2.981             38.570
 ROTATIONAL               0.889              2.981             24.223
 VIBRATIONAL             44.968              7.834              2.667
 VIBRATION  1             0.931              1.087              0.496
                       Q            LOG10(Q)             LN(Q)
 TOTAL BOT       0.404770D-20        -20.392792        -46.956138
 TOTAL V=0       0.130189D+13         12.114573         27.894836
 VIB (BOT)       0.418094D-32        -32.378727        -74.554773
 VIB (BOT)  1    0.266819D+00         -0.573783         -1.321184
 VIB (V=0)       0.134474D+01          0.128638          0.296201
 VIB (V=0)  1    0.106674D+01          0.028058          0.064606
 ELECTRONIC      0.100000D+01          0.000000          0.000000
 TRANSLATIONAL   0.220588D+08          7.343582         16.909224
 ROTATIONAL      0.438887D+05          4.642352         10.689411
 ***** Axes restored to original set *****
 -------------------------------------------------------------------
 Center     Atomic                   Forces (Hartrees/Bohr)
 Number     Number              X              Y              Z
 -------------------------------------------------------------------
    1          7           0.000221517    0.000000000   -0.000050645
    2          1           0.000012740    0.000000000   -0.000048590
    3          6           0.000288730    0.000000000   -0.000200113
    4          1          -0.000065925    0.000000000   -0.000031151
    5          6          -0.000219836    0.000000000    0.000050916
    6          1          -0.000029182    0.000000000    0.000066795
    7          1           0.000089722    0.000000000   -0.000013223
    8          6          -0.000225884    0.000000000   -0.000116413
    9          7          -0.000071882    0.000000000    0.000342424
 -------------------------------------------------------------------
 Cartesian Forces:  Max     0.000342424 RMS     0.000126833

 GradGradGradGradGradGradGradGradGradGradGradGradGradGradGradGradGradGrad
 Berny optimization.
 Internal  Forces:  Max     0.000188552 RMS     0.000066974
 Search for a local minimum.
 Step number   1 out of a maximum of  48
 All quantities printed in internal units (Hartrees-Bohrs-Radians)
 Second derivative matrix not updated -- analytic derivatives used.
     Eigenvalues ---    0.00589   0.00893   0.01708   0.02481   0.05733
     Eigenvalues ---    0.06123   0.10393   0.10985   0.11580   0.12035
     Eigenvalues ---    0.22556   0.24951   0.31331   0.36764   0.38230
     Eigenvalues ---    0.38509   0.38751   0.43510   0.47469   0.48398
     Eigenvalues ---    0.521321000.000001000.000001000.000001000.00000
     Eigenvalues --- 1000.000001000.000001000.000001000.000001000.00000
     Eigenvalues --- 1000.000001000.000001000.000001000.000001000.00000
     Eigenvalues --- 1000.000001000.000001000.00000
 Angle between quadratic step and forces=  19.43 degrees.
 Linear search not attempted -- first point.
 Iteration  1 RMS(Cart)=  0.00020076 RMS(Int)=  0.00000003
 Iteration  2 RMS(Cart)=  0.00000003 RMS(Int)=  0.00000000
 Variable       Old X    -DE/DX   Delta X   Delta X   Delta X     New X
                                 (Linear)    (Quad)   (Total)
    R1        2.67313   0.00017   0.00000   0.00066   0.00066   2.67379
    R2        2.55166  -0.00006   0.00000  -0.00012  -0.00012   2.55154
    R3        1.91012   0.00005   0.00000   0.00011   0.00011   1.91022
    R4        2.04461   0.00007   0.00000   0.00019   0.00019   2.04480
    R5        2.62767   0.00010   0.00000   0.00027   0.00027   2.62794
    R6        2.65028  -0.00018   0.00000  -0.00058  -0.00058   2.64970
    R7        2.04259   0.00007   0.00000   0.00015   0.00015   2.04274
    R8        2.04331   0.00009   0.00000   0.00024   0.00024   2.04355
    R9        2.63029  -0.00019   0.00000  -0.00054  -0.00054   2.62976
    A1        1.83614  -0.00002   0.00000  -0.00007  -0.00007   1.83607
    A2        2.30771  -0.00002   0.00000  -0.00025  -0.00025   2.30746
    A3        2.13517   0.00001   0.00000   0.00015   0.00015   2.13533
    A4        1.84030   0.00001   0.00000   0.00009   0.00009   1.84040
    A5        1.92960  -0.00012   0.00000  -0.00040  -0.00040   1.92920
    A6        2.10892   0.00003   0.00000  -0.00013  -0.00013   2.10880
    A7        2.24466   0.00008   0.00000   0.00053   0.00053   2.24519
    A8        2.19358  -0.00001   0.00000  -0.00007  -0.00007   2.19351
    A9        1.93834   0.00003   0.00000   0.00007   0.00007   1.93841
   A10        2.15127  -0.00001   0.00000   0.00000   0.00000   2.15127
   A11        2.19827  -0.00005   0.00000  -0.00015  -0.00015   2.19812
   A12        2.20452  -0.00005   0.00000  -0.00015  -0.00015   2.20437
   A13        1.88040   0.00010   0.00000   0.00030   0.00030   1.88070
    D1        0.00000   0.00000   0.00000   0.00000   0.00000   0.00000
    D2        3.14159   0.00000   0.00000   0.00000   0.00000   3.14159
    D3        3.14159   0.00000   0.00000   0.00000   0.00000   3.14159
    D4        0.00000   0.00000   0.00000   0.00000   0.00000   0.00000
    D5        3.14159   0.00000   0.00000   0.00000   0.00000   3.14159
    D6        0.00000   0.00000   0.00000   0.00000   0.00000   0.00000
    D7        0.00000   0.00000   0.00000   0.00000   0.00000   0.00000
    D8        3.14159   0.00000   0.00000   0.00000   0.00000   3.14159
    D9        0.00000   0.00000   0.00000   0.00000   0.00000   0.00000
   D10        3.14159   0.00000   0.00000   0.00000   0.00000   3.14159
   D11        3.14159   0.00000   0.00000   0.00000   0.00000   3.14159
   D12        0.00000   0.00000   0.00000   0.00000   0.00000   0.00000
   D13        3.14159   0.00000   0.00000   0.00000   0.00000   3.14159
   D14        0.00000   0.00000   0.00000   0.00000   0.00000   0.00000
   D15        0.00000   0.00000   0.00000   0.00000   0.00000   0.00000
   D16        3.14159   0.00000   0.00000   0.00000   0.00000   3.14159
         Item               Value     Threshold  Converged?
 Maximum Force            0.000189     0.000450     YES
 RMS     Force            0.000067     0.000300     YES
 Maximum Displacement     0.000543     0.001800     YES
 RMS     Displacement     0.000201     0.001200     YES
 Predicted change in Energy=-2.737389D-07
 Optimization completed.
    -- Stationary point found.
                         ----------------------------
                         !   Optimized Parameters   !
                         ! (Angstroms and Degrees)  !
 ------------------------                            -------------------------
 ! Name  Definition              Value          Derivative Info.             !
 -----------------------------------------------------------------------------
 ! R1    R(1,5)                  1.4146         -DE/DX =    0.0002           !
 ! R2    R(1,8)                  1.3503         -DE/DX =   -0.0001           !
 ! R3    R(2,9)                  1.0108         -DE/DX =    0.0001           !
 ! R4    R(3,4)                  1.082          -DE/DX =    0.0001           !
 ! R5    R(3,5)                  1.3905         -DE/DX =    0.0001           !
 ! R6    R(3,9)                  1.4025         -DE/DX =   -0.0002           !
 ! R7    R(5,6)                  1.0809         -DE/DX =    0.0001           !
 ! R8    R(7,8)                  1.0813         -DE/DX =    0.0001           !
 ! R9    R(8,9)                  1.3919         -DE/DX =   -0.0002           !
 ! A1    A(5,1,8)              105.2031         -DE/DX =    0.               !
 ! A2    A(4,3,5)              132.222          -DE/DX =    0.               !
 ! A3    A(4,3,9)              122.3364         -DE/DX =    0.               !
 ! A4    A(5,3,9)              105.4416         -DE/DX =    0.               !
 ! A5    A(1,5,3)              110.5579         -DE/DX =   -0.0001           !
 ! A6    A(1,5,6)              120.8325         -DE/DX =    0.               !
 ! A7    A(3,5,6)              128.6096         -DE/DX =    0.0001           !
 ! A8    A(1,8,7)              125.6829         -DE/DX =    0.               !
 ! A9    A(1,8,9)              111.0586         -DE/DX =    0.               !
 ! A10   A(7,8,9)              123.2585         -DE/DX =    0.               !
 ! A11   A(2,9,3)              125.9516         -DE/DX =    0.               !
 ! A12   A(2,9,8)              126.3096         -DE/DX =   -0.0001           !
 ! A13   A(3,9,8)              107.7388         -DE/DX =    0.0001           !
 ! D1    D(8,1,5,3)              0.             -DE/DX =    0.               !
 ! D2    D(8,1,5,6)            180.             -DE/DX =    0.               !
 ! D3    D(5,1,8,7)            180.             -DE/DX =    0.               !
 ! D4    D(5,1,8,9)              0.             -DE/DX =    0.               !
 ! D5    D(4,3,5,1)            180.             -DE/DX =    0.               !
 ! D6    D(4,3,5,6)              0.             -DE/DX =    0.               !
 ! D7    D(9,3,5,1)              0.             -DE/DX =    0.               !
 ! D8    D(9,3,5,6)            180.             -DE/DX =    0.               !
 ! D9    D(4,3,9,2)              0.             -DE/DX =    0.               !
 ! D10   D(4,3,9,8)            180.             -DE/DX =    0.               !
 ! D11   D(5,3,9,2)            180.             -DE/DX =    0.               !
 ! D12   D(5,3,9,8)              0.             -DE/DX =    0.               !
 ! D13   D(1,8,9,2)            180.             -DE/DX =    0.               !
 ! D14   D(1,8,9,3)              0.             -DE/DX =    0.               !
 ! D15   D(7,8,9,2)              0.             -DE/DX =    0.               !
 ! D16   D(7,8,9,3)            180.             -DE/DX =    0.               !
 -----------------------------------------------------------------------------
 GradGradGradGradGradGradGradGradGradGradGradGradGradGradGradGradGradGrad

 1\1\ NATIONAL INSTITUTE OF STANDARDS AND TECHNOLOGY-AMUR\Freq\RMP2-FC\
 6-31G\C3H4N2\RDJ3\12-Apr-2000\0\\#N GEOM=ALLCHECK GUESS=TCHECK RMP2(FC
 )/6-31G FREQ\\1H imidazole C3H4N2 casno=288324\\0,1\N,0.5080420872,0.,
 1.1526445606\H,0.4894563495,0.,-2.0772753527\C,-1.0399351155,0.,-0.556
 0522434\H,-1.925043439,0.,-1.1783218518\C,-0.8677523065,0.,0.823746714
 1\H,-1.6223556468,0.,1.5976304806\H,2.2285328524,0.,-0.1647653252\C,1.
 1554017416,0.,-0.0323363257\N,0.2552613366,0.,-1.0939898207\\Version=S
 GI-G98RevA.6\State=1-A'\HF=-224.7025423\MP2=-225.1916341\RMSD=1.009e-0
 9\RMSF=1.268e-04\Dipole=-0.1913915,0.,-1.6186951\DipoleDeriv=-0.318947
 5,0.,0.1079574,0.,-0.3199297,0.,-0.0379846,0.,-0.4621844,0.2044963,0.,
 -0.0090419,0.,0.4096214,0.,-0.0024822,0.,0.2104539,0.0771429,0.,-0.179
 8695,0.,-0.0944602,0.,-0.1118486,0.,0.2055005,0.0217273,0.,-0.044894,0
 .,0.1961406,0.,-0.065785,0.,0.0419905,0.1266489,0.,-0.1614402,0.,-0.13
 90445,0.,-0.0599856,0.,0.0555204,0.007389,0.,0.068515,0.,0.1641248,0.,
 0.0654902,0.,0.0332211,-0.0184592,0.,0.025529,0.,0.1752019,0.,0.037039
 3,0.,0.0730696,0.1480791,0.,0.0959144,0.,-0.0052701,0.,0.0953489,0.,0.
 5147483,-0.2480768,0.,0.0973297,0.,-0.3863843,0.,0.0802076,0.,-0.67231
 97\Polar=46.9848019,0.,15.531761,-1.0468714,0.,44.3098448\PG=CS [SG(C3
 H4N2)]\NImag=0\\0.43059459,0.,0.09688703,-0.05109714,0.,0.49396266,-0.
 00331863,0.,-0.00849450,0.08650615,0.,0.00656863,0.,0.,0.01317008,-0.0
 0309225,0.,-0.00137958,-0.09428346,0.,0.45746361,-0.03706572,0.,-0.023
 10778,0.00612303,0.,-0.00693216,0.73791821,0.,0.01377581,0.,0.,-0.0072
 1622,0.,0.,0.08790696,-0.07474433,0.,-0.02579844,0.03106635,0.,0.00003
 563,0.16706153,0.,0.72734488,0.00162232,0.,0.00246803,-0.00006516,0.,0
 .00038926,-0.26348407,0.,-0.14438022,0.27510892,0.,0.00740298,0.,0.,-0
 .00068752,0.,0.,-0.01334122,0.,0.,0.01510293,-0.00378614,0.,-0.0040059
 1,-0.00082948,0.,0.00012467,-0.15543054,0.,-0.16782678,0.15462458,0.,0
 .16083196,-0.21009676,0.,-0.00696353,-0.00891575,0.,-0.00129762,-0.101
 12430,0.,-0.02396572,0.00657331,0.,-0.02182364,0.62475157,0.,-0.063607
 97,0.,0.,0.00340368,0.,0.,-0.04944723,0.,0.,-0.00521895,0.,0.,0.112116
 70,-0.04589911,0.,-0.09779011,0.00358168,0.,0.00155876,-0.02217806,0.,
 -0.37259646,0.00430726,0.,0.00188720,-0.17931338,0.,0.77912489,-0.0165
 2394,0.,0.02046912,0.00073912,0.,0.00005153,0.00949156,0.,-0.00920680,
 -0.00014684,0.,0.00084823,-0.20242065,0.,0.15611725,0.21449027,0.,-0.0
 0609932,0.,0.,0.00172979,0.,0.,-0.00398523,0.,0.,-0.00123756,0.,0.,-0.
 02275175,0.,0.,0.02053164,-0.01119093,0.,0.01118969,0.00126215,0.,0.00
 014716,0.02094439,0.,-0.00639334,-0.00060288,0.,-0.00064627,0.15906294
 ,0.,-0.22647413,-0.16406631,0.,0.22662399,-0.00471626,0.,-0.00121315,-
 0.00072875,0.,-0.00073143,0.00074861,0.,-0.00155913,-0.00033710,0.,0.0
 0032229,0.00100038,0.,0.00130011,-0.00056752,0.,-0.00012529,0.37993545
 ,0.,-0.00639755,0.,0.,-0.00065486,0.,0.,0.00297890,0.,0.,0.00166621,0.
 ,0.,0.00622941,0.,0.,0.00117649,0.,0.,0.01756851,0.02833204,0.,-0.0000
 4143,0.00041463,0.,0.00002723,-0.00159631,0.,-0.00585428,-0.00105637,0
 .,0.00106240,0.00323966,0.,-0.00446282,0.00167381,0.,0.00072306,-0.038
 22724,0.,0.06268657,-0.14712189,0.,0.07988443,0.01713002,0.,0.01622422
 ,-0.09039299,0.,-0.00472145,-0.00292495,0.,0.00496917,-0.09306983,0.,0
 .02416146,-0.00569567,0.,-0.00497575,-0.36609440,0.,0.03846948,0.88554
 415,0.,-0.06934953,0.,0.,-0.00803704,0.,0.,0.01547866,0.,0.,0.00277906
 ,0.,0.,0.01207866,0.,0.,0.00441120,0.,0.,-0.01805113,0.,0.,0.11454426,
 0.13631252,0.,-0.27683910,-0.02067640,0.,-0.00923088,-0.03483085,0.,-0
 .01112058,0.00305345,0.,-0.00579269,0.05727775,0.,-0.01244242,-0.00158
 861,0.,0.00020861,0.03458863,0.,-0.06015640,-0.07450368,0.,0.57384769,
 -0.01337371,0.,-0.01194549,-0.09747002,0.,0.08967191,-0.26221433,0.,0.
 06044978,-0.01634643,0.,0.02110555,-0.01669798,0.,0.05792279,0.0006336
 7,0.,-0.00030832,-0.00924040,0.,-0.03124970,-0.19737444,0.,-0.09963280
 ,0.61208363,0.,0.02081991,0.,0.,-0.00827655,0.,0.,-0.04615042,0.,0.,-0
 .00646593,0.,0.,0.00719744,0.,0.,0.00622474,0.,0.,-0.00451600,0.,0.,-0
 .05385414,0.,0.,0.08502094,0.02516536,0.,-0.09929778,0.08795903,0.,-0.
 44874660,0.05606978,0.,-0.13779063,-0.01880312,0.,0.01436540,0.0137835
 4,0.,-0.06880491,-0.00429821,0.,-0.00537877,0.00564522,0.,0.00601568,-
 0.07950789,0.,-0.19847424,-0.08601371,0.,0.93811184\\-0.00022152,0.,0.
 00005065,-0.00001274,0.,0.00004859,-0.00028873,0.,0.00020011,0.0000659
 2,0.,0.00003115,0.00021984,0.,-0.00005092,0.00002918,0.,-0.00006680,-0
 .00008972,0.,0.00001322,0.00022588,0.,0.00011641,0.00007188,0.,-0.0003
 4242\\\@

 THE MORE PROGRESS PHYSICAL SCIENCES MAKE, THE MORE THEY TEND TO ENTER
 THE DOMAIN OF MATHEMATICS, WHICH IS A KIND OF CENTRE TO WHICH THEY ALL
 CONVERGE.  WE MAY EVEN JUDGE THE DEGREE OF PERFECTION TO WHICH A
 SCIENCE HAS ARRIVED BY THE FACILITY WITH WHICH IT MAY BE SUBMITTED
 TO CALCULATION.

                               -- ADOLPHE QUETELET, 1796-1874
 Job cpu time:  0 days  0 hours  5 minutes 18.1 seconds.
 File lengths (MBytes):  RWF=  214 Int=    0 D2E=    0 Chk=    3 Scr=    1
 Normal termination of Gaussian 98.
