 Gaussian 09, Revision A.02,
 Gaussian 09:  AM64L-G09RevA.02 11-Jun-2009

 -------------
 #PM6 opt freq
 -------------

 -------------------------------------------------
 1H imidazole C3H4N2 casno=288324 method=1 basis=1
 -------------------------------------------------
 Symbolic Z-matrix:
 Charge =  0 Multiplicity = 1

 SCF Done:  E(RPM6) =  0.160981373972     A.U. after   14 cycles
 SCF Done:  E(RPM6) =  0.741468193267E-01 A.U. after   13 cycles
 SCF Done:  E(RPM6) =  0.551417285649E-01 A.U. after   13 cycles
 SCF Done:  E(RPM6) =  0.545704680169E-01 A.U. after   11 cycles
 SCF Done:  E(RPM6) =  0.542907059892E-01 A.U. after   12 cycles
 SCF Done:  E(RPM6) =  0.542820724273E-01 A.U. after   10 cycles
 SCF Done:  E(RPM6) =  0.542788274565E-01 A.U. after   10 cycles
 Optimization completed.
    -- Stationary point found.
 Normal termination of Gaussian 09 at Fri Nov  5 06:04:08 2010.

 -------------------------------------------------------------
 #P Geom=AllCheck Guess=TCheck SCRF=Check GenChk RPM6/ZDO Freq
 -------------------------------------------------------------

 1H imidazole C3H4N2 casno=288324 method=1 basis=1
 -------------------------------------------------
 Redundant internal coordinates taken from checkpoint file:
 /gaussian/Gau-31412.chk
 Charge =  0 Multiplicity = 1

                         Standard orientation:
 ---------------------------------------------------------------------
 Center     Atomic      Atomic             Coordinates (Angstroms)
 Number     Number       Type             X           Y           Z
 ---------------------------------------------------------------------
      1          7           0       -0.741025   -1.006039    0.000000
      2          1           0        0.008120    2.136230    0.000000
      3          6           0        1.133022    0.307713    0.000000
      4          1           0        2.136571    0.683862    0.000000
      5          6           0        0.655255   -1.004858    0.000000
      6          1           0        1.212767   -1.925225    0.000000
      7          1           0       -2.142885    0.649438    0.000000
      8          6           0       -1.126176    0.289476    0.000000
      9          7           0        0.000000    1.134854    0.000000
 ---------------------------------------------------------------------

 SCF Done:  E(RPM6) =  0.542788274564E-01 A.U. after    2 cycles

 The electronic state is 1-A'.
 Alpha  occ. eigenvalues --   -1.26069  -1.07901  -0.94121  -0.78982  -0.75964
 Alpha  occ. eigenvalues --   -0.70006  -0.55398  -0.55132  -0.54691  -0.52106
 Alpha  occ. eigenvalues --   -0.39205  -0.39193  -0.35015
 Alpha virt. eigenvalues --    0.02159   0.05654   0.06511   0.13127   0.14920
 Alpha virt. eigenvalues --    0.17513   0.18699   0.19766   0.21034   0.22497
 Alpha virt. eigenvalues --    0.22940

 Mulliken atomic charges:
              1
     1  N   -0.289851
     2  H    0.265548
     3  C   -0.193760
     4  H    0.177883
     5  C   -0.091561
     6  H    0.177801
     7  H    0.184054
     8  C   -0.013593
     9  N   -0.216520
 Sum of Mulliken atomic charges =   0.00000

 Dipole moment (field-independent basis, Debye):
    X=              1.2167    Y=              3.8990    Z=              0.0000  Tot=              4.0845
 N-N= 1.000848482279D+02 E-N=-1.351887366226D+02  KE=-4.719669198584D+01
  Exact polarizability:  46.086   0.039  45.765   0.000   0.000   8.933
 Approx polarizability:  39.345   0.697  43.585   0.000   0.000   5.305
 Leave Link  601 at Fri Nov  5 06:04:09 2010, MaxMem=   24000000 cpu:       0.0
 (Enter /usr/local/gaussian09-A02-64/g09/l701.exe)
 Compute integral second derivatives.
 ... and contract with generalized density number  0.
 Leave Link  701 at Fri Nov  5 06:04:09 2010, MaxMem=   24000000 cpu:       0.1
 (Enter /usr/local/gaussian09-A02-64/g09/l702.exe)
 L702 exits ... SP integral derivatives will be done elsewhere.

                     1                      2                      3
                    A"                     A"                     A"
 Frequencies --   501.8992               561.7115               619.4694
 Red. masses --     2.8293                 2.6969                 1.1371
 Frc consts  --     0.4199                 0.5014                 0.2571
 IR Inten    --     4.9127                25.2638                95.9662

                     4                      5                      6
                    A'                     A'                     A"
 Frequencies --   822.2380               832.8626               835.5527
 Red. masses --     6.8739                 6.3191                 1.2549
 Frc consts  --     2.7381                 2.5826                 0.5162
 IR Inten    --     3.4694                 8.3032                96.6624

                     7                      8                      9
                    A"                     A"                     A'
 Frequencies --   866.7571               893.9201              1110.3840
 Red. masses --     1.4986                 1.4918                 1.1827
 Frc consts  --     0.6633                 0.7023                 0.8592
 IR Inten    --    21.7245                 0.1353                33.2669

                    10                     11                     12
                    A'                     A'                     A'
 Frequencies --  1113.3528              1181.4399              1214.2794
 Red. masses --     1.1876                 1.3865                 2.2420
 Frc consts  --     0.8673                 1.1403                 1.9477
 IR Inten    --    19.5959                 9.9195                11.3163

                    13                     14                     15
                    A'                     A'                     A'
 Frequencies --  1250.8577              1377.2604              1401.4250
 Red. masses --     2.0371                 3.3077                 6.6953
 Frc consts  --     1.8779                 3.6967                 7.7475
 IR Inten    --     3.1176                 8.1646                 0.3624

                    16                     17                     18
                    A'                     A'                     A'
 Frequencies --  1441.0479              1544.9902              2763.7704
 Red. masses --     5.9898                 4.2590                 1.0760
 Frc consts  --     7.3285                 5.9898                 4.8424
 IR Inten    --    16.0700                14.1468               233.8462

                    19                     20                     21
                    A'                     A'                     A'
 Frequencies --  2777.8565              2787.6451              2827.5683
 Red. masses --     1.0753                 1.0828                 1.0773
 Frc consts  --     4.8890                 4.9574                 5.0748
 IR Inten    --   140.1063               115.0551               208.1406

 - Thermochemistry -
 -------------------
 Temperature   298.150 Kelvin.  Pressure   1.00000 Atm.
 Atom     1 has atomic number  7 and mass  14.00307

 Molecular mass:    68.03745 amu.
 Principal axes and moments of inertia in atomic units:
                           1         2         3
     Eigenvalues --   192.81973 199.34652 392.16625
           X            0.29612   0.95515   0.00000
           Y            0.95515  -0.29612   0.00000
           Z            0.00000   0.00000   1.00000
 This molecule is an asymmetric top.
 Rotational symmetry number  1.
 Rotational temperatures (Kelvin)      0.44920     0.43449     0.22086
 Rotational constants (GHZ):           9.35973     9.05329     4.60198
 Zero-point vibrational energy     171821.4 (Joules/Mol)
                                   41.06629 (Kcal/Mol)
 Warning -- explicit consideration of   3 degrees of freedom as
           vibrations may cause significant error
 Vibrational temperatures:    722.12   808.18   891.28  1183.02  1198.30
          (Kelvin)           1202.17  1247.07  1286.15  1597.59  1601.86
                             1699.83  1747.08  1799.70  1981.57  2016.34
                             2073.34  2222.89  3976.44  3996.71  4010.79
                             4068.24

 Zero-point correction=                           0.065443 (Hartree/Particle)
 Thermal correction to Energy=                    0.069278
 Thermal correction to Enthalpy=                  0.070223
 Thermal correction to Gibbs Free Energy=         0.039082
 Sum of electronic and zero-point Energies=              0.119722
 Sum of electronic and thermal Energies=                 0.123557
 Sum of electronic and thermal Enthalpies=               0.124501
 Sum of electronic and thermal Free Energies=            0.093361

                     E (Thermal)             CV                S
                      KCal/Mol        Cal/Mol-Kelvin    Cal/Mol-Kelvin
 Total                   43.473             13.679             65.540
 Electronic               0.000              0.000              0.000
 Translational            0.889              2.981             38.570
 Rotational               0.889              2.981             24.226
 Vibrational             41.695              7.717              2.744
 Vibration     1          0.857              1.246              0.653
 Vibration     2          0.917              1.114              0.520
 Vibration     3          0.979              0.991              0.417

 Optimization completed.
    -- Stationary point found.
 Normal termination of Gaussian 09 at Fri Nov  5 06:04:09 2010.
