 Gaussian 03, Revision D.01,
 Gaussian 03:  AM64L-G03RevD.01 13-Oct-2005

 ----------------------
 #LSDA/cc-pVTZ opt freq
 ----------------------

 -------------------------------------------------------------
 1himidaz 1H-Imidazole casno=288324 method=51 basis=6 config=1
 -------------------------------------------------------------
 Symbolic Z-matrix:
 Charge =  0 Multiplicity = 1

 SCF Done:  E(RS-VWN) =  -225.066984428     A.U. after   15 cycles
 SCF Done:  E(RS-VWN) =  -225.068582819     A.U. after   12 cycles
 SCF Done:  E(RS-VWN) =  -225.068653605     A.U. after    9 cycles
 SCF Done:  E(RS-VWN) =  -225.068662904     A.U. after    8 cycles
 Optimization completed.
    -- Stationary point found.
 Normal termination of Gaussian 03 at Fri Mar  7 20:39:01 2008.

 ----------------------------------------------------------------
 #N Geom=AllCheck Guess=Read SCRF=Check GenChk RSVWN/CC-pVTZ Freq
 ----------------------------------------------------------------

 1himidaz 1H-Imidazole casno=288324 method=51 basis=6 config=1
 -------------------------------------------------------------
 Redundant internal coordinates taken from checkpoint file:
 /gaussian/Gau-22013.chk
 Charge =  0 Multiplicity = 1

                         Standard orientation:
 ---------------------------------------------------------------------
 Center     Atomic     Atomic              Coordinates (Angstroms)
 Number     Number      Type              X           Y           Z
 ---------------------------------------------------------------------
    1          7             0       -0.731816   -0.977782    0.000000
    2          1             0       -0.005756    2.109083    0.000000
    3          6             0        1.108495    0.300199    0.000000
    4          1             0        2.114311    0.707580    0.000000
    5          6             0        0.628696   -0.979896    0.000000
    6          1             0        1.198465   -1.906028    0.000000
    7          1             0       -2.102660    0.664560    0.000000
    8          6             0       -1.084132    0.282009    0.000000
    9          7             0        0.000000    1.093629    0.000000
 ---------------------------------------------------------------------

 SCF Done:  E(RS-VWN) =  -225.068662904     A.U. after    1 cycles

 The electronic state is 1-A'.
 Alpha  occ. eigenvalues --  -13.94346 -13.86025  -9.85062  -9.83067  -9.81262
 Alpha  occ. eigenvalues --   -0.95703  -0.81376  -0.69295  -0.58000  -0.55703
 Alpha  occ. eigenvalues --   -0.52897  -0.41849  -0.41720  -0.41123  -0.38073
 Alpha  occ. eigenvalues --   -0.28048  -0.24477  -0.23142
 Alpha virt. eigenvalues --   -0.03500  -0.01260   0.00042   0.04093   0.04639
 Alpha virt. eigenvalues --    0.06638   0.11521   0.13372   0.14546   0.17207
 Alpha virt. eigenvalues --    0.22286   0.23033   0.25750   0.27936   0.28321

 Mulliken atomic charges:
              1
     1  N   -0.170543
     2  H    0.159957
     3  C   -0.136222
     4  H    0.128306
     5  C   -0.139412
     6  H    0.122623
     7  H    0.127089
     8  C   -0.063872
     9  N   -0.027927
 Sum of Mulliken charges=   0.00000

 Dipole moment (field-independent basis, Debye):
    X=     1.1073    Y=     3.5610    Z=     0.0000  Tot=     3.7292
 Quadrupole moment (field-independent basis, Debye-Ang):
   XX=   -26.7378   YY=   -25.5099   ZZ=   -31.7904
   XY=    -3.1633   XZ=     0.0000   YZ=     0.0000

  Exact polarizability:  54.310  -1.087  51.596   0.000   0.000  27.333
 Approx polarizability: 103.291   1.933 103.768   0.000   0.000  46.149

                     1                      2                      3
                    A"                     A"                     A"
 Frequencies --   560.4449               644.4012               678.7523
 Red. masses --     1.4979                 2.0545                 2.5395
 Frc consts  --     0.2772                 0.5027                 0.6893
 IR Inten    --    88.9644                10.5869                 4.2442

                     4                      5                      6
                    A"                     A"                     A"
 Frequencies --   710.3642               782.7167               848.9718
 Red. masses --     1.2479                 1.4990                 1.4064
 Frc consts  --     0.3710                 0.5411                 0.5972
 IR Inten    --    35.3540                30.7985                 4.0072

                     7                      8                      9
                    A'                     A'                     A'
 Frequencies --   883.4335               926.4798              1053.9841
 Red. masses --     4.6846                 3.9026                 1.4752
 Frc consts  --     2.1541                 1.9737                 0.9656
 IR Inten    --    10.2772                 2.1639                21.2146

                    10                     11                     12
                    A'                     A'                     A'
 Frequencies --  1076.5358              1114.1177              1194.7717
 Red. masses --     1.3501                 1.3211                 5.2149
 Frc consts  --     0.9219                 0.9661                 4.3860
 IR Inten    --    34.4724                 2.8846                 2.3287

                    13                     14                     15
                    A'                     A'                     A'
 Frequencies --  1237.1774              1367.5595              1422.2283
 Red. masses --     1.3843                 3.9677                 4.1698
 Frc consts  --     1.2484                 4.3720                 4.9694
 IR Inten    --     1.5406                 7.8748                 8.2042

                    16                     17                     18
                    A'                     A'                     A'
 Frequencies --  1482.3824              1525.5956              3165.1684
 Red. masses --     4.1009                 3.8639                 1.0937
 Frc consts  --     5.3095                 5.2985                 6.4559
 IR Inten    --    13.8781                12.4456                 2.1425

                    19                     20                     21
                    A'                     A'                     A'
 Frequencies --  3168.2366              3200.1508              3557.4264
 Red. masses --     1.0979                 1.1047                 1.0815
 Frc consts  --     6.4931                 6.6658                 8.0638
 IR Inten    --     1.4457                 0.0623                53.1780

 - Thermochemistry -
 -------------------
 Temperature   298.150 Kelvin.  Pressure   1.00000 Atm.
 Atom  1 has atomic number  7 and mass  14.00307

 Molecular mass:    68.03745 amu.
 Principal axes and moments of inertia in atomic units:
                           1         2         3
     EIGENVALUES --   182.70576 189.51163 372.21739
           X            0.40754   0.91319   0.00000
           Y            0.91319  -0.40754   0.00000
           Z            0.00000   0.00000   1.00000
 This molecule is an asymmetric top.
 Rotational symmetry number  1.
 Rotational temperatures (Kelvin)      0.47406     0.45704     0.23270
 Rotational constants (GHZ):           9.87786     9.52312     4.84862
 Zero-point vibrational energy     183034.0 (Joules/Mol)
                                   43.74618 (Kcal/Mol)
 Warning -- explicit consideration of   1 degrees of freedom as
           vibrations may cause significant error
 Vibrational temperatures:    806.35   927.15   976.57  1022.05  1126.15
          (Kelvin)           1221.48  1271.06  1333.00  1516.45  1548.89
                             1602.96  1719.01  1780.02  1967.61  2046.27
                             2132.82  2194.99  4553.97  4558.38  4604.30
                             5118.34

 Zero-point correction=                           0.069714 (Hartree/Particle)
 Thermal correction to Energy=                    0.073489
 Thermal correction to Enthalpy=                  0.074434
 Thermal correction to Gibbs Free Energy=         0.043466
 Sum of electronic and zero-point Energies=           -224.998949
 Sum of electronic and thermal Energies=              -224.995174
 Sum of electronic and thermal Enthalpies=            -224.994229
 Sum of electronic and thermal Free Energies=         -225.025197

                     E (Thermal)             CV                S
                      KCal/Mol        Cal/Mol-Kelvin    Cal/Mol-Kelvin
 Total                   46.115             13.584             65.177
 Electronic               0.000              0.000              0.000
 Translational            0.889              2.981             38.570
 Rotational               0.889              2.981             24.070
 Vibrational             44.338              7.622              2.537
 Vibration  1             0.916              1.117              0.523

 Optimization completed.
    -- Stationary point found.
 Normal termination of Gaussian 03 at Fri Mar  7 21:01:54 2008.
