 Gaussian 03, Revision D.01,
 Gaussian 03:  AM64L-G03RevD.01 13-Oct-2005

 -----------------------
 #LSDA/6-31+G** opt freq
 -----------------------

 -------------------------------------------------------------
 1himidaz 1H-Imidazole casno=288324 method=51 basis=4 config=1
 -------------------------------------------------------------
 Symbolic Z-matrix:
 Charge =  0 Multiplicity = 1

 SCF Done:  E(RS-VWN) =  -224.993749173     A.U. after   13 cycles
 SCF Done:  E(RS-VWN) =  -224.996412530     A.U. after   10 cycles
 SCF Done:  E(RS-VWN) =  -224.996481055     A.U. after    9 cycles
 SCF Done:  E(RS-VWN) =  -224.996491214     A.U. after    9 cycles
 Optimization completed.
    -- Stationary point found.
 Normal termination of Gaussian 03 at Thu Mar  6 13:52:29 2008.

 --------------------------------------------------------------------
 #N Geom=AllCheck Guess=Read SCRF=Check GenChk RSVWN/6-31+G(d,p) Freq
 --------------------------------------------------------------------

 1himidaz 1H-Imidazole casno=288324 method=51 basis=4 config=1
 -------------------------------------------------------------
 Redundant internal coordinates taken from checkpoint file:
 /gaussian/Gau-1461.chk
 Charge =  0 Multiplicity = 1

                         Standard orientation:
 ---------------------------------------------------------------------
 Center     Atomic     Atomic              Coordinates (Angstroms)
 Number     Number      Type              X           Y           Z
 ---------------------------------------------------------------------
    1          7             0       -0.734713   -0.983767    0.000000
    2          1             0       -0.008641    2.117949    0.000000
    3          6             0        1.114005    0.303146    0.000000
    4          1             0        2.123142    0.711817    0.000000
    5          6             0        0.630793   -0.983738    0.000000
    6          1             0        1.200917   -1.913563    0.000000
    7          1             0       -2.110463    0.664219    0.000000
    8          6             0       -1.088458    0.282638    0.000000
    9          7             0        0.000000    1.099097    0.000000
 ---------------------------------------------------------------------

 SCF Done:  E(RS-VWN) =  -224.996491214     A.U. after    1 cycles

 The electronic state is 1-A'.
 Alpha  occ. eigenvalues --  -13.96637 -13.88341  -9.86772  -9.84826  -9.82937
 Alpha  occ. eigenvalues --   -0.95908  -0.81739  -0.69562  -0.58329  -0.55900
 Alpha  occ. eigenvalues --   -0.53086  -0.41940  -0.41762  -0.41413  -0.38311
 Alpha  occ. eigenvalues --   -0.28182  -0.24842  -0.23216
 Alpha virt. eigenvalues --   -0.03945  -0.03492  -0.00454   0.00258   0.01180
 Alpha virt. eigenvalues --    0.02806   0.03529   0.03707   0.04980   0.07449
 Alpha virt. eigenvalues --    0.08909   0.08952   0.09490   0.12312   0.13966

 Mulliken atomic charges:
              1
     1  N   -0.274970
     2  H    0.322033
     3  C   -0.117568
     4  H    0.176521
     5  C   -0.118521
     6  H    0.160912
     7  H    0.171675
     8  C    0.009679
     9  N   -0.329761
 Sum of Mulliken charges=   0.00000

 Dipole moment (field-independent basis, Debye):
    X=     1.2147    Y=     3.7169    Z=     0.0000  Tot=     3.9104
 Quadrupole moment (field-independent basis, Debye-Ang):
   XX=   -27.0047   YY=   -25.8752   ZZ=   -32.4702
   XY=    -3.4532   XZ=     0.0000   YZ=     0.0000

  Exact polarizability:  56.375   0.215  54.296   0.000   0.000  31.361
 Approx polarizability: 102.790   3.694 104.755   0.000   0.000  47.802

                     1                      2                      3
                    A"                     A"                     A"
 Frequencies --   552.2438               634.3911               670.6142
 Red. masses --     1.6129                 2.0697                 2.6121
 Frc consts  --     0.2898                 0.4908                 0.6921
 IR Inten    --    94.1388                16.9185                 3.3321

                     4                      5                      6
                    A"                     A"                     A"
 Frequencies --   698.3655               767.4946               835.5791
 Red. masses --     1.2365                 1.4324                 1.3603
 Frc consts  --     0.3553                 0.4971                 0.5596
 IR Inten    --    40.2448                44.4421                 6.3105

                     7                      8                      9
                    A'                     A'                     A'
 Frequencies --   876.2323               918.4621              1056.2230
 Red. masses --     4.8729                 4.1876                 1.4356
 Frc consts  --     2.2043                 2.0813                 0.9436
 IR Inten    --     7.4601                 2.7192                20.9639

                    10                     11                     12
                    A'                     A'                     A'
 Frequencies --  1083.1346              1121.2432              1197.7725
 Red. masses --     1.3470                 1.3221                 5.2634
 Frc consts  --     0.9310                 0.9793                 4.4491
 IR Inten    --    40.4539                 3.7204                 2.3731

                    13                     14                     15
                    A'                     A'                     A'
 Frequencies --  1238.9158              1378.1011              1431.8099
 Red. masses --     1.3445                 3.9378                 4.1296
 Frc consts  --     1.2159                 4.4062                 4.9881
 IR Inten    --     1.8725                 9.2275                 9.2541

                    16                     17                     18
                    A'                     A'                     A'
 Frequencies --  1489.5654              1532.6554              3189.4469
 Red. masses --     4.3061                 3.9627                 1.0931
 Frc consts  --     5.6294                 5.4844                 6.5516
 IR Inten    --    20.4282                13.7331                 2.6896

                    19                     20                     21
                    A'                     A'                     A'
 Frequencies --  3194.9390              3221.6746              3573.3633
 Red. masses --     1.0977                 1.1048                 1.0820
 Frc consts  --     6.6016                 6.7560                 8.1398
 IR Inten    --     1.4117                 0.0677                55.0900

 - Thermochemistry -
 -------------------
 Temperature   298.150 Kelvin.  Pressure   1.00000 Atm.
 Atom  1 has atomic number  7 and mass  14.00307

 Molecular mass:    68.03745 amu.
 Principal axes and moments of inertia in atomic units:
                           1         2         3
     EIGENVALUES --   184.08940 191.51421 375.60361
           X            0.41424   0.91017   0.00000
           Y            0.91017  -0.41424   0.00000
           Z            0.00000   0.00000   1.00000
 This molecule is an asymmetric top.
 Rotational symmetry number  1.
 Rotational temperatures (Kelvin)      0.47050     0.45226     0.23060
 Rotational constants (GHZ):           9.80361     9.42354     4.80491
 Zero-point vibrational energy     183400.8 (Joules/Mol)
                                   43.83385 (Kcal/Mol)
 Warning -- explicit consideration of   1 degrees of freedom as
           vibrations may cause significant error
 Vibrational temperatures:    794.55   912.75   964.86  1004.79  1104.25
          (Kelvin)           1202.21  1260.70  1321.46  1519.67  1558.39
                             1613.22  1723.33  1782.52  1982.78  2060.05
                             2143.15  2205.15  4588.90  4596.80  4635.27
                             5141.27

 Zero-point correction=                           0.069854 (Hartree/Particle)
 Thermal correction to Energy=                    0.073656
 Thermal correction to Enthalpy=                  0.074600
 Thermal correction to Gibbs Free Energy=         0.043582
 Sum of electronic and zero-point Energies=           -224.926638
 Sum of electronic and thermal Energies=              -224.922835
 Sum of electronic and thermal Enthalpies=            -224.921891
 Sum of electronic and thermal Free Energies=         -224.952910

                     E (Thermal)             CV                S
                      KCal/Mol        Cal/Mol-Kelvin    Cal/Mol-Kelvin
 Total                   46.220             13.701             65.284
 Electronic               0.000              0.000              0.000
 Translational            0.889              2.981             38.570
 Rotational               0.889              2.981             24.097
 Vibrational             44.442              7.739              2.617
 Vibration  1             0.908              1.135              0.540

 Optimization completed.
    -- Stationary point found.
 Normal termination of Gaussian 03 at Thu Mar  6 13:54:36 2008.
