 Gaussian 03, Revision D.01,
 Gaussian 03:  AM64L-G03RevD.01 13-Oct-2005

 -----------------------
 #LSDA/6-311G** opt freq
 -----------------------

 --------------------------------------------------------------
 1himidaz 1H-Imidazole casno=288324 method=51 basis=21 config=1
 --------------------------------------------------------------
 Symbolic Z-matrix:
 Charge =  0 Multiplicity = 1

 SCF Done:  E(RS-VWN) =  -225.038011261     A.U. after   15 cycles
 SCF Done:  E(RS-VWN) =  -225.039895333     A.U. after   12 cycles
 SCF Done:  E(RS-VWN) =  -225.039958852     A.U. after    9 cycles
 SCF Done:  E(RS-VWN) =  -225.039968029     A.U. after    9 cycles
 Optimization completed.
    -- Stationary point found.
 Normal termination of Gaussian 03 at Mon Mar 17 13:57:24 2008.

 --------------------------------------------------------------------
 #N Geom=AllCheck Guess=Read SCRF=Check GenChk RSVWN/6-311G(d,p) Freq
 --------------------------------------------------------------------

 1himidaz 1H-Imidazole casno=288324 method=51 basis=21 config=1
 --------------------------------------------------------------
 Redundant internal coordinates taken from checkpoint file:
 /gaussian/Gau-2967.chk
 Charge =  0 Multiplicity = 1

                         Standard orientation:
 ---------------------------------------------------------------------
 Center     Atomic     Atomic              Coordinates (Angstroms)
 Number     Number      Type              X           Y           Z
 ---------------------------------------------------------------------
    1          7             0       -0.733313   -0.980332    0.000000
    2          1             0       -0.004490    2.113310    0.000000
    3          6             0        1.110884    0.301320    0.000000
    4          1             0        2.117828    0.709224    0.000000
    5          6             0        0.628801   -0.980307    0.000000
    6          1             0        1.197942   -1.908404    0.000000
    7          1             0       -2.105088    0.662915    0.000000
    8          6             0       -1.085185    0.280881    0.000000
    9          7             0        0.000000    1.096274    0.000000
 ---------------------------------------------------------------------

 SCF Done:  E(RS-VWN) =  -225.039968029     A.U. after    1 cycles

 The electronic state is 1-A'.
 Alpha  occ. eigenvalues --  -13.93348 -13.84783  -9.84313  -9.82327  -9.80471
 Alpha  occ. eigenvalues --   -0.95629  -0.81323  -0.69204  -0.57986  -0.55614
 Alpha  occ. eigenvalues --   -0.52809  -0.41666  -0.41543  -0.41117  -0.37968
 Alpha  occ. eigenvalues --   -0.27773  -0.24135  -0.22887
 Alpha virt. eigenvalues --   -0.03191  -0.00896   0.00536   0.04545   0.05143
 Alpha virt. eigenvalues --    0.07217   0.14042   0.15515   0.17841   0.22766
 Alpha virt. eigenvalues --    0.26508   0.30522   0.32206   0.33620   0.33973

 Mulliken atomic charges:
              1
     1  N   -0.280432
     2  H    0.246122
     3  C   -0.016332
     4  H    0.138620
     5  C   -0.128382
     6  H    0.133898
     7  H    0.142728
     8  C    0.114560
     9  N   -0.350781
 Sum of Mulliken charges=   0.00000

 Dipole moment (field-independent basis, Debye):
    X=     1.1092    Y=     3.6089    Z=     0.0000  Tot=     3.7755
 Quadrupole moment (field-independent basis, Debye-Ang):
   XX=   -26.5202   YY=   -25.3048   ZZ=   -31.7868
   XY=    -3.1627   XZ=     0.0000   YZ=     0.0000

  Exact polarizability:  51.226  -1.244  48.752   0.000   0.000  22.983
 Approx polarizability:  97.478   2.499  99.073   0.000   0.000  38.017

                     1                      2                      3
                    A"                     A"                     A"
 Frequencies --   569.9025               643.8051               678.7418
 Red. masses --     1.6036                 1.9854                 2.4579
 Frc consts  --     0.3069                 0.4848                 0.6672
 IR Inten    --    93.7206                17.1557                 3.3914

                     4                      5                      6
                    A"                     A"                     A"
 Frequencies --   703.1516               778.0734               840.2818
 Red. masses --     1.2395                 1.4989                 1.3896
 Frc consts  --     0.3611                 0.5346                 0.5781
 IR Inten    --    36.2057                34.4595                 5.2171

                     7                      8                      9
                    A'                     A'                     A'
 Frequencies --   884.8326               927.1615              1054.4197
 Red. masses --     4.7677                 3.9058                 1.4733
 Frc consts  --     2.1993                 1.9782                 0.9651
 IR Inten    --    10.0973                 2.9316                21.1463

                    10                     11                     12
                    A'                     A'                     A'
 Frequencies --  1077.0251              1116.8438              1195.6847
 Red. masses --     1.3457                 1.3296                 5.0983
 Frc consts  --     0.9197                 0.9771                 4.2944
 IR Inten    --    39.7088                 2.8634                 2.3988

                    13                     14                     15
                    A'                     A'                     A'
 Frequencies --  1233.7745              1366.8215              1425.6752
 Red. masses --     1.3765                 4.0285                 4.0553
 Frc consts  --     1.2345                 4.4342                 4.8564
 IR Inten    --     1.7128                 8.0301                 8.8835

                    16                     17                     18
                    A'                     A'                     A'
 Frequencies --  1482.4562              1526.8222              3167.3417
 Red. masses --     4.2042                 3.8654                 1.0934
 Frc consts  --     5.4437                 5.3091                 6.4628
 IR Inten    --    14.6662                13.6471                 2.8181

                    19                     20                     21
                    A'                     A'                     A'
 Frequencies --  3171.5379              3203.2229              3559.4128
 Red. masses --     1.0979                 1.1048                 1.0815
 Frc consts  --     6.5067                 6.6789                 8.0730
 IR Inten    --     1.1145                 0.1000                54.2164

 - Thermochemistry -
 -------------------
 Temperature   298.150 Kelvin.  Pressure   1.00000 Atm.
 Atom  1 has atomic number  7 and mass  14.00307

 Molecular mass:    68.03745 amu.
 Principal axes and moments of inertia in atomic units:
                           1         2         3
     EIGENVALUES --   183.02533 190.39045 373.41579
           X            0.42601   0.90472   0.00000
           Y            0.90472  -0.42601   0.00000
           Z            0.00000   0.00000   1.00000
 This molecule is an asymmetric top.
 Rotational symmetry number  1.
 Rotational temperatures (Kelvin)      0.47323     0.45493     0.23195
 Rotational constants (GHZ):           9.86061     9.47916     4.83306
 Zero-point vibrational energy     183070.4 (Joules/Mol)
                                   43.75489 (Kcal/Mol)
 Warning -- explicit consideration of   1 degrees of freedom as
           vibrations may cause significant error
 Vibrational temperatures:    819.96   926.29   976.56  1011.68  1119.47
          (Kelvin)           1208.98  1273.08  1333.98  1517.07  1549.60
                             1606.89  1720.32  1775.12  1966.55  2051.23
                             2132.92  2196.75  4557.09  4563.13  4608.72
                             5121.19

 Zero-point correction=                           0.069728 (Hartree/Particle)
 Thermal correction to Energy=                    0.073503
 Thermal correction to Enthalpy=                  0.074448
 Thermal correction to Gibbs Free Energy=         0.043476
 Sum of electronic and zero-point Energies=           -224.970240
 Sum of electronic and thermal Energies=              -224.966465
 Sum of electronic and thermal Enthalpies=            -224.965520
 Sum of electronic and thermal Free Energies=         -224.996492

                     E (Thermal)             CV                S
                      KCal/Mol        Cal/Mol-Kelvin    Cal/Mol-Kelvin
 Total                   46.124             13.594             65.185
 Electronic               0.000              0.000              0.000
 Translational            0.889              2.981             38.570
 Rotational               0.889              2.981             24.080
 Vibrational             44.347              7.632              2.535
 Vibration  1             0.926              1.096              0.504

 Optimization completed.
    -- Stationary point found.
 Normal termination of Gaussian 03 at Mon Mar 17 13:59:19 2008.
