 Gaussian 03, Revision E.01,
 Gaussian 03:  AM64L-G03RevE.01 11-Sep-2007

 ------------------------
 #PBE1PBE/6-31G* opt freq
 ------------------------

 --------------------------------------------------
 1H imidazole C3H4N2 casno=288324 method=54 basis=1
 --------------------------------------------------
 Symbolic Z-matrix:
 Charge =  0 Multiplicity = 1

 SCF Done:  E(RPBE+HF-PBE) =  -225.894602439     A.U. after   14 cycles
 SCF Done:  E(RPBE+HF-PBE) =  -225.947906994     A.U. after   13 cycles
 SCF Done:  E(RPBE+HF-PBE) =  -225.955744294     A.U. after   13 cycles
 SCF Done:  E(RPBE+HF-PBE) =  -225.955984616     A.U. after   10 cycles
 SCF Done:  E(RPBE+HF-PBE) =  -225.956051676     A.U. after   10 cycles
 SCF Done:  E(RPBE+HF-PBE) =  -225.956055808     A.U. after    8 cycles
 Optimization completed.
    -- Stationary point found.
 Normal termination of Gaussian 03 at Mon Jun 20 07:12:35 2011.

 --------------------------------------------------------------------
 #P Geom=AllCheck Guess=Read SCRF=Check GenChk RPBE1PBE/6-31G(d) Freq
 --------------------------------------------------------------------

 1H imidazole C3H4N2 casno=288324 method=54 basis=1
 --------------------------------------------------
 Redundant internal coordinates taken from checkpoint file:
 /gaussian/Gau-26779.chk
 Charge =  0 Multiplicity = 1

                         Standard orientation:
 ---------------------------------------------------------------------
 Center     Atomic     Atomic              Coordinates (Angstroms)
 Number     Number      Type              X           Y           Z
 ---------------------------------------------------------------------
    1          7             0       -0.739582   -0.983886    0.000000
    2          1             0       -0.010330    2.108533    0.000000
    3          6             0        1.115825    0.300796    0.000000
    4          1             0        2.115900    0.707784    0.000000
    5          6             0        0.631223   -0.980201    0.000000
    6          1             0        1.195430   -1.903343    0.000000
    7          1             0       -2.097752    0.661326    0.000000
    8          6             0       -1.084745    0.280642    0.000000
    9          7             0        0.000000    1.100784    0.000000
 ---------------------------------------------------------------------

 SCF Done:  E(RPBE+HF-PBE) =  -225.956055808     A.U. after    1 cycles

 The electronic state is 1-A'.
 Alpha  occ. eigenvalues --  -14.45835 -14.37160 -10.28192 -10.25956 -10.23961
 Alpha  occ. eigenvalues --   -1.04247  -0.89291  -0.76180  -0.63240  -0.60421
 Alpha  occ. eigenvalues --   -0.57568  -0.44997  -0.44700  -0.44333  -0.41315
 Alpha  occ. eigenvalues --   -0.28971  -0.27524  -0.23512
 Alpha virt. eigenvalues --    0.04227   0.08502   0.08654   0.14784   0.16540
 Alpha virt. eigenvalues --    0.18565   0.23481   0.25241   0.32202   0.36206
 Alpha virt. eigenvalues --    0.47588   0.53433   0.56159   0.58285   0.60814

 Mulliken atomic charges:
              1
     1  N   -0.435964
     2  H    0.361465
     3  C   -0.010917
     4  H    0.189084
     5  C   -0.067981
     6  H    0.171625
     7  H    0.187943
     8  C    0.194649
     9  N   -0.589904
 Sum of Mulliken charges=   0.00000

 Dipole moment (field-independent basis, Debye):
    X=     1.1260    Y=     3.6035    Z=     0.0000  Tot=     3.7753
 Quadrupole moment (field-independent basis, Debye-Ang):
   XX=   -25.9399   YY=   -24.8729   ZZ=   -31.2392
   XY=    -3.1745   XZ=     0.0000   YZ=     0.0000

  Exact polarizability:  47.206  -1.233  45.366   0.000   0.000  17.644
 Approx polarizability:  71.193   1.462  73.943   0.000   0.000  25.388

                     1                      2                      3
                    A"                     A"                     A"
 Frequencies --   529.7065               653.1061               690.5162
 Red. masses --     1.5692                 2.3675                 2.8795
 Frc consts  --     0.2594                 0.5950                 0.8089
 IR Inten    --   103.6619                15.7150                 2.8216

                     4                      5                      6
                    A"                     A"                     A"
 Frequencies --   728.7834               812.2077               868.2332
 Red. masses --     1.2202                 1.3451                 1.3147
 Frc consts  --     0.3818                 0.5228                 0.5839
 IR Inten    --    28.7751                33.4643                 5.5873

                     7                      8                      9
                    A'                     A'                     A'
 Frequencies --   906.9858               948.6735              1096.3816
 Red. masses --     5.3206                 4.5968                 1.4908
 Frc consts  --     2.5788                 2.4375                 1.0558
 IR Inten    --     7.8152                 1.9252                29.5759

                    10                     11                     12
                    A'                     A'                     A'
 Frequencies --  1123.0802              1170.1023              1204.6755
 Red. masses --     1.4351                 1.3380                 6.2791
 Frc consts  --     1.0665                 1.0793                 5.3690
 IR Inten    --    26.2827                 2.5256                 4.2242

                    13                     14                     15
                    A'                     A'                     A'
 Frequencies --  1297.7261              1411.0264              1480.2051
 Red. masses --     1.3557                 3.6490                 3.3309
 Frc consts  --     1.3452                 4.2805                 4.2998
 IR Inten    --     0.7525                 9.0397                14.0579

                    16                     17                     18
                    A'                     A'                     A'
 Frequencies --  1543.9287              1596.8241              3288.1886
 Red. masses --     3.5728                 3.5460                 1.0925
 Frc consts  --     5.0179                 5.3273                 6.9594
 IR Inten    --    19.2094                14.6213                 6.7235

                    19                     20                     21
                    A'                     A'                     A'
 Frequencies --  3293.4955              3322.2854              3699.6007
 Red. masses --     1.0971                 1.1043                 1.0816
 Frc consts  --     7.0118                 7.1817                 8.7226
 IR Inten    --     1.6191                 1.5452                55.1296

 - Thermochemistry -
 -------------------
 Temperature   298.150 Kelvin.  Pressure   1.00000 Atm.
 Atom  1 has atomic number  7 and mass  14.00307

 Molecular mass:    68.03745 amu.
 Principal axes and moments of inertia in atomic units:
                           1         2         3
     EIGENVALUES --   183.52496 191.41263 374.93759
           X            0.46410   0.88578   0.00000
           Y            0.88578  -0.46410   0.00000
           Z            0.00000   0.00000   1.00000
 This molecule is an asymmetric top.
 Rotational symmetry number  1.
 Rotational temperatures (Kelvin)      0.47195     0.45250     0.23101
 Rotational constants (GHZ):           9.83376     9.42854     4.81344
 Zero-point vibrational energy     189403.1 (Joules/Mol)
                                   45.26844 (Kcal/Mol)
 Warning -- explicit consideration of   1 degrees of freedom as
           vibrations may cause significant error
 Vibrational temperatures:    762.13   939.67   993.50  1048.56  1168.58
          (Kelvin)           1249.19  1304.95  1364.93  1577.45  1615.86
                             1683.51  1733.26  1867.14  2030.15  2129.68
                             2221.37  2297.47  4730.96  4738.60  4780.02
                             5322.89

 Zero-point correction=                           0.072140 (Hartree/Particle)
 Thermal correction to Energy=                    0.075874
 Thermal correction to Enthalpy=                  0.076819
 Thermal correction to Gibbs Free Energy=         0.045889
 Sum of electronic and zero-point Energies=           -225.883916
 Sum of electronic and thermal Energies=              -225.880181
 Sum of electronic and thermal Enthalpies=            -225.879237
 Sum of electronic and thermal Free Energies=         -225.910167

                     E (Thermal)             CV                S
                      KCal/Mol        Cal/Mol-Kelvin    Cal/Mol-Kelvin
 Total                   47.612             13.213             65.097
 Electronic               0.000              0.000              0.000
 Translational            0.889              2.981             38.570
 Rotational               0.889              2.981             24.092
 Vibrational             45.834              7.251              2.435
 Vibration  1             0.885              1.184              0.588

 Optimization completed.
    -- Stationary point found.
 Normal termination of Gaussian 03 at Mon Jun 20 07:14:09 2011.
