 Gaussian 03, Revision C.02,
 Gaussian 03:  AM64L-G03RevC.02 12-Jun-2004

 ----------------------
 #B1B95/6-31G* OPT FREQ
 ----------------------

 --------------------------------------------------
 1H imidazole C3H4N2 casno=288324 method=55 basis=1
 --------------------------------------------------
 Symbolic Z-matrix:
 Charge =  0 Multiplicity = 1

 SCF Done:  E(RB+HF-B95) =  -226.121262156     A.U. after   15 cycles
 SCF Done:  E(RB+HF-B95) =  -226.122291652     A.U. after   13 cycles
 SCF Done:  E(RB+HF-B95) =  -226.122322610     A.U. after    9 cycles
 SCF Done:  E(RB+HF-B95) =  -226.122327115     A.U. after    9 cycles
 Optimization completed.
    -- Stationary point found.
 Normal termination of Gaussian 03 at Fri Mar 10 07:09:05 2006.

 ------------------------------------------------------------------
 #N Geom=AllCheck Guess=Read SCRF=Check GenChk RB1B95/6-31G(d) Freq
 ------------------------------------------------------------------

 1H imidazole C3H4N2 casno=288324 method=55 basis=1
 --------------------------------------------------
 Redundant internal coordinates taken from checkpoint file:
 /scratch/Gau-2899.chk
 Charge =  0 Multiplicity = 1

                         Standard orientation:
 ---------------------------------------------------------------------
 Center     Atomic     Atomic              Coordinates (Angstroms)
 Number     Number      Type              X           Y           Z
 ---------------------------------------------------------------------
    1          7             0       -0.738281   -0.982498    0.000000
    2          1             0       -0.010199    2.105633    0.000000
    3          6             0        1.113584    0.300003    0.000000
    4          1             0        2.111627    0.705755    0.000000
    5          6             0        0.630411   -0.977914    0.000000
    6          1             0        1.192925   -1.899356    0.000000
    7          1             0       -2.093311    0.660404    0.000000
    8          6             0       -1.082841    0.279613    0.000000
    9          7             0        0.000000    1.099263    0.000000
 ---------------------------------------------------------------------

 SCF Done:  E(RB+HF-B95) =  -226.122327115     A.U. after    1 cycles

 The electronic state is 1-A'.
 Alpha  occ. eigenvalues --  -14.51094 -14.42498 -10.33044 -10.30749 -10.28744
 Alpha  occ. eigenvalues --   -1.03988  -0.89077  -0.75959  -0.63124  -0.60275
 Alpha  occ. eigenvalues --   -0.57541  -0.44923  -0.44595  -0.44468  -0.41203
 Alpha  occ. eigenvalues --   -0.28978  -0.27590  -0.23527
 Alpha virt. eigenvalues --    0.04986   0.09282   0.09574   0.15674   0.17392
 Alpha virt. eigenvalues --    0.19417   0.24321   0.26127   0.32956   0.37045
 Alpha virt. eigenvalues --    0.48396   0.53837   0.56392   0.58822   0.61094

 Mulliken atomic charges:
              1
     1  N   -0.433947
     2  H    0.354145
     3  C    0.005385
     4  H    0.177071
     5  C   -0.058164
     6  H    0.159937
     7  H    0.176385
     8  C    0.205743
     9  N   -0.586556
 Sum of Mulliken charges=   0.00000

 Dipole moment (field-independent basis, Debye):
    X=     1.1207    Y=     3.5839    Z=     0.0000  Tot=     3.7550
 Quadrupole moment (field-independent basis, Debye-Ang):
   XX=   -25.9396   YY=   -24.8529   ZZ=   -31.0741
   XY=    -3.1283   XZ=     0.0000   YZ=     0.0000

  Exact polarizability:  47.064  -1.298  45.225   0.000   0.000  17.553
 Approx polarizability:  69.541   1.323  72.257   0.000   0.000  25.075

                     1                      2                      3
                    A"                     A"                     A"
 Frequencies --   534.7655               651.6166               688.7929
 Red. masses --     1.6080                 2.3313                 2.8644
 Frc consts  --     0.2709                 0.5832                 0.8007
 IR Inten    --   100.6777                17.5796                 2.0237

                     4                      5                      6
                    A"                     A"                     A"
 Frequencies --   733.0633               815.2121               870.6541
 Red. masses --     1.2198                 1.3352                 1.3125
 Frc consts  --     0.3862                 0.5228                 0.5862
 IR Inten    --    27.6649                31.2949                 4.9419

                     7                      8                      9
                    A'                     A'                     A'
 Frequencies --   901.3524               943.4549              1097.2123
 Red. masses --     5.3717                 4.6900                 1.4763
 Frc consts  --     2.5713                 2.4596                 1.0471
 IR Inten    --     7.6541                 1.8335                28.1052

                    10                     11                     12
                    A'                     A'                     A'
 Frequencies --  1124.6968              1170.5390              1206.0036
 Red. masses --     1.4312                 1.3304                 6.1898
 Frc consts  --     1.0667                 1.0740                 5.3043
 IR Inten    --    25.5075                 2.8428                 4.5991

                    13                     14                     15
                    A'                     A'                     A'
 Frequencies --  1299.0949              1413.3566              1482.0890
 Red. masses --     1.3538                 3.6783                 3.3034
 Frc consts  --     1.3462                 4.3292                 4.2753
 IR Inten    --     0.7296                 9.5653                15.0502

                    16                     17                     18
                    A'                     A'                     A'
 Frequencies --  1548.6846              1603.5660              3293.5420
 Red. masses --     3.6119                 3.6371                 1.0925
 Frc consts  --     5.1040                 5.5103                 6.9825
 IR Inten    --    20.3442                14.1035                 7.7795

                    19                     20                     21
                    A'                     A'                     A'
 Frequencies --  3299.1064              3328.7585              3700.2594
 Red. masses --     1.0971                 1.1044                 1.0817
 Frc consts  --     7.0355                 7.2099                 8.7262
 IR Inten    --     2.0952                 1.9737                54.5028

 - Thermochemistry -
 -------------------
 Temperature   298.150 Kelvin.  Pressure   1.00000 Atm.
 Atom  1 has atomic number  7 and mass  14.00307

 Molecular mass:    68.03745 amu.
 Principal axes and moments of inertia in atomic units:
                           1         2         3
     EIGENVALUES --   182.83776 190.76168 373.59944
           X            0.46342   0.88614   0.00000
           Y            0.88614  -0.46342   0.00000
           Z            0.00000   0.00000   1.00000
 This molecule is an asymmetric top.
 Rotational symmetry number  1.
 Rotational temperatures (Kelvin)      0.47372     0.45404     0.23184
 Rotational constants (GHZ):           9.87072     9.46071     4.83069
 Zero-point vibrational energy     189642.9 (Joules/Mol)
                                   45.32575 (Kcal/Mol)
 Warning -- explicit consideration of   1 degrees of freedom as
           vibrations may cause significant error
 Vibrational temperatures:    769.41   937.53   991.02  1054.71  1172.91
          (Kelvin)           1252.68  1296.84  1357.42  1578.64  1618.19
                             1684.14  1735.17  1869.11  2033.50  2132.39
                             2228.21  2307.17  4738.67  4746.67  4789.34
                             5323.84

 Zero-point correction=                           0.072231 (Hartree/Particle)
 Thermal correction to Energy=                    0.075962
 Thermal correction to Enthalpy=                  0.076906
 Thermal correction to Gibbs Free Energy=         0.045987
 Sum of electronic and zero-point Energies=           -226.050096
 Sum of electronic and thermal Energies=              -226.046365
 Sum of electronic and thermal Enthalpies=            -226.045421
 Sum of electronic and thermal Free Energies=         -226.076340

                     E (Thermal)             CV                S
                      KCal/Mol        Cal/Mol-Kelvin    Cal/Mol-Kelvin
 Total                   47.667             13.199             65.075
 Electronic               0.000              0.000              0.000
 Translational            0.889              2.981             38.570
 Rotational               0.889              2.981             24.081
 Vibrational             45.889              7.237              2.424
 Vibration  1             0.890              1.173              0.577

 Optimization completed.
    -- Stationary point found.
 Normal termination of Gaussian 03 at Fri Mar 10 07:12:13 2006.
