 Gaussian 03, Revision C.02,
 Gaussian 03:  AM64L-G03RevC.02 12-Jun-2004

 ---------------------------
 #B1B95/aug-cc-pVDZ OPT FREQ
 ---------------------------

 ---------------------------------------------------
 1H imidazole C3H4N2 casno=288324 method=55 basis=17
 ---------------------------------------------------
 Symbolic Z-matrix:
 Charge =  0 Multiplicity = 1

 SCF Done:  E(RB+HF-B95) =  -226.157276901     A.U. after   12 cycles
 SCF Done:  E(RB+HF-B95) =  -226.158667397     A.U. after   10 cycles
 SCF Done:  E(RB+HF-B95) =  -226.158705221     A.U. after    9 cycles
 SCF Done:  E(RB+HF-B95) =  -226.158710812     A.U. after    9 cycles
 Optimization completed.
    -- Stationary point found.
 Normal termination of Gaussian 03 at Fri Sep  8 11:42:47 2006.

 ---------------------------------------------------------------------
 #N Geom=AllCheck Guess=Read SCRF=Check GenChk RB1B95/Aug-CC-pVDZ Freq
 ---------------------------------------------------------------------

 1H imidazole C3H4N2 casno=288324 method=55 basis=17
 ---------------------------------------------------
 Redundant internal coordinates taken from checkpoint file:
 /scratch/Gau-26351.chk
 Charge =  0 Multiplicity = 1

                         Standard orientation:
 ---------------------------------------------------------------------
 Center     Atomic     Atomic              Coordinates (Angstroms)
 Number     Number      Type              X           Y           Z
 ---------------------------------------------------------------------
    1          7             0       -0.738287   -0.982022    0.000000
    2          1             0       -0.011421    2.105822    0.000000
    3          6             0        1.114066    0.300336    0.000000
    4          1             0        2.116658    0.704426    0.000000
    5          6             0        0.631803   -0.981425    0.000000
    6          1             0        1.198519   -1.904194    0.000000
    7          1             0       -2.098618    0.663531    0.000000
    8          6             0       -1.085390    0.282283    0.000000
    9          7             0        0.000000    1.099628    0.000000
 ---------------------------------------------------------------------

 SCF Done:  E(RB+HF-B95) =  -226.158710812     A.U. after    1 cycles

 The electronic state is 1-A'.
 Alpha  occ. eigenvalues --  -14.51358 -14.43407 -10.33640 -10.31274 -10.29466
 Alpha  occ. eigenvalues --   -1.05020  -0.90114  -0.76932  -0.63873  -0.61194
 Alpha  occ. eigenvalues --   -0.58212  -0.45743  -0.45534  -0.45255  -0.42065
 Alpha  occ. eigenvalues --   -0.30162  -0.28853  -0.24663
 Alpha virt. eigenvalues --   -0.00612   0.01757   0.02460   0.02511   0.03993
 Alpha virt. eigenvalues --    0.05540   0.06646   0.06886   0.07930   0.09307
 Alpha virt. eigenvalues --    0.10100   0.10386   0.11287   0.11485   0.11587

 Mulliken atomic charges:
              1
     1  N   -0.460549
     2  H   -0.157348
     3  C    0.770915
     4  H   -0.387582
     5  C    0.425307
     6  H   -0.348608
     7  H   -0.237154
     8  C    0.568015
     9  N   -0.172997
 Sum of Mulliken charges=   0.00000

 Dipole moment (field-independent basis, Debye):
    X=     1.1315    Y=     3.5619    Z=     0.0000  Tot=     3.7373
 Quadrupole moment (field-independent basis, Debye-Ang):
   XX=   -26.7930   YY=   -25.8110   ZZ=   -31.9704
   XY=    -3.3403   XZ=     0.0000   YZ=     0.0000

  Exact polarizability:  57.204  -0.556  54.564   0.000   0.000  33.328
 Approx polarizability:  82.986   0.840  83.532   0.000   0.000  45.582

                     1                      2                      3
                    A"                     A"                     A"
 Frequencies --   567.3056               651.3791               684.8502
 Red. masses --     1.6795                 2.0276                 2.6526
 Frc consts  --     0.3185                 0.5069                 0.7330
 IR Inten    --    83.8865                17.9900                 2.2458

                     4                      5                      6
                    A"                     A"                     A"
 Frequencies --   746.0641               832.1990               877.5085
 Red. masses --     1.2414                 1.3808                 1.3607
 Frc consts  --     0.4071                 0.5634                 0.6173
 IR Inten    --    42.4603                35.4886                 3.3061

                     7                      8                      9
                    A'                     A'                     A'
 Frequencies --   898.6052               939.6677              1084.6020
 Red. masses --     5.1668                 4.4115                 1.4751
 Frc consts  --     2.4582                 2.2950                 1.0224
 IR Inten    --     6.6527                 1.5091                27.9261

                    10                     11                     12
                    A'                     A'                     A'
 Frequencies --  1107.3252              1151.2975              1198.5827
 Red. masses --     1.4117                 1.3247                 6.1146
 Frc consts  --     1.0199                 1.0345                 5.1756
 IR Inten    --    26.6050                 3.9353                 3.6258

                    13                     14                     15
                    A'                     A'                     A'
 Frequencies --  1281.0860              1396.7824              1468.3034
 Red. masses --     1.3633                 3.8327                 3.3948
 Frc consts  --     1.3183                 4.4057                 4.3122
 IR Inten    --     0.6024                 6.5945                12.2351

                    16                     17                     18
                    A'                     A'                     A'
 Frequencies --  1527.6257              1582.0845              3279.6535
 Red. masses --     3.6831                 3.6894                 1.0930
 Frc consts  --     5.0640                 5.4408                 6.9265
 IR Inten    --    21.3881                10.7348                 4.3517

                    19                     20                     21
                    A'                     A'                     A'
 Frequencies --  3285.5275              3314.3865              3698.8406
 Red. masses --     1.0982                 1.1060                 1.0822
 Frc consts  --     6.9846                 7.1583                 8.7236
 IR Inten    --     1.0293                 0.9079                61.7581

 - Thermochemistry -
 -------------------
 Temperature   298.150 Kelvin.  Pressure   1.00000 Atm.
 Atom  1 has atomic number  7 and mass  14.00307

 Molecular mass:    68.03745 amu.
 Principal axes and moments of inertia in atomic units:
                           1         2         3
     EIGENVALUES --   183.70252 190.89867 374.60119
           X            0.44107   0.89747   0.00000
           Y            0.89747  -0.44107   0.00000
           Z            0.00000   0.00000   1.00000
 This molecule is an asymmetric top.
 Rotational symmetry number  1.
 Rotational temperatures (Kelvin)      0.47149     0.45372     0.23122
 Rotational constants (GHZ):           9.82426     9.45392     4.81777
 Zero-point vibrational energy     188852.5 (Joules/Mol)
                                   45.13684 (Kcal/Mol)
 Warning -- explicit consideration of   1 degrees of freedom as
           vibrations may cause significant error
 Vibrational temperatures:    816.23   937.19   985.35  1073.42  1197.35
          (Kelvin)           1262.54  1292.89  1351.97  1560.50  1593.19
                             1656.46  1724.49  1843.19  2009.66  2112.56
                             2197.91  2276.26  4718.68  4727.14  4768.66
                             5321.80

 Zero-point correction=                           0.071930 (Hartree/Particle)
 Thermal correction to Energy=                    0.075640
 Thermal correction to Enthalpy=                  0.076584
 Thermal correction to Gibbs Free Energy=         0.045695
 Sum of electronic and zero-point Energies=           -226.086781
 Sum of electronic and thermal Energies=              -226.083071
 Sum of electronic and thermal Enthalpies=            -226.082127
 Sum of electronic and thermal Free Energies=         -226.113016

                     E (Thermal)             CV                S
                      KCal/Mol        Cal/Mol-Kelvin    Cal/Mol-Kelvin
 Total                   47.465             13.156             65.012
 Electronic               0.000              0.000              0.000
 Translational            0.889              2.981             38.570
 Rotational               0.889              2.981             24.089
 Vibrational             45.687              7.194              2.353
 Vibration  1             0.923              1.102              0.509

 Optimization completed.
    -- Stationary point found.
 Normal termination of Gaussian 03 at Fri Sep  8 11:59:35 2006.
