 Gaussian 09, Revision B.01,
 Gaussian 09:  EM64L-G09RevB.01 12-Aug-2010

 ------------------------
 #B2PLYP/cc-pVTZ opt freq
 ------------------------

 ---------------------------------------------------------------------
 1himidaz 1H-Imidazole casno=288324 state=1 config=1 method=56 basis=6
 ---------------------------------------------------------------------
 Symbolic Z-matrix:
 Charge =  0 Multiplicity = 1

 SCF Done:  E(RB2PLYP) =  -225.823957779     A.U. after   13 cycles
 E2(B2PLYP) =    -0.2902038693D+00 E(B2PLYP) =    -0.22611416164787D+03
 SCF Done:  E(RB2PLYP) =  -225.824688000     A.U. after    9 cycles
 E2(B2PLYP) =    -0.2896487732D+00 E(B2PLYP) =    -0.22611433677288D+03
 SCF Done:  E(RB2PLYP) =  -225.824671197     A.U. after    8 cycles
 E2(B2PLYP) =    -0.2896672144D+00 E(B2PLYP) =    -0.22611433841115D+03
 Optimization completed.
    -- Stationary point found.
 Normal termination of Gaussian 09 at Wed Mar  6 11:48:37 2013.

 ----------------------------------------------------------------------
 #N Geom=AllCheck Guess=TCheck SCRF=Check GenChk RB2PLYP(FC)/CC-pVTZ Fr
 eq
 ----------------------------------------------------------------------

 1himidaz 1H-Imidazole casno=288324 state=1 config=1 method=56 basis=6
 ---------------------------------------------------------------------
 Redundant internal coordinates taken from checkpoint file:
 /tmp/rdj3/g09-12728/Gau-12772.chk
 Charge =  0 Multiplicity = 1

                         Standard orientation:
 ---------------------------------------------------------------------
 Center     Atomic      Atomic             Coordinates (Angstroms)
 Number     Number       Type             X           Y           Z
 ---------------------------------------------------------------------
      1          7           0       -0.740945   -0.983728    0.000000
      2          1           0       -0.009261    2.106110    0.000000
      3          6           0        1.116700    0.299008    0.000000
      4          1           0        2.111945    0.701592    0.000000
      5          6           0        0.634860   -0.982012    0.000000
      6          1           0        1.196640   -1.898632    0.000000
      7          1           0       -2.094589    0.662016    0.000000
      8          6           0       -1.087913    0.282651    0.000000
      9          7           0        0.000000    1.102447    0.000000
 ---------------------------------------------------------------------

 SCF Done:  E(RB2PLYP) =  -225.824671197     A.U. after    1 cycles
 E2(B2PLYP) =    -0.2896672158D+00 E(B2PLYP) =    -0.22611433841252D+03
 E2(B2PLYP) =    -0.2896672158D+00 E(B2PLYP) =    -0.22611433841252D+03

 The electronic state is 1-A'.
 Alpha  occ. eigenvalues --  -14.89750 -14.81741 -10.67239 -10.64466 -10.62609
 Alpha  occ. eigenvalues --   -1.15166  -0.99437  -0.85446  -0.70625  -0.67903
 Alpha  occ. eigenvalues --   -0.64659  -0.51264  -0.50826  -0.50375  -0.47615
 Alpha  occ. eigenvalues --   -0.34048  -0.33407  -0.27187
 Alpha virt. eigenvalues --    0.06770   0.08055   0.11434   0.12198   0.12350
 Alpha virt. eigenvalues --    0.13879   0.21360   0.23840   0.26165   0.27414
 Alpha virt. eigenvalues --    0.33763   0.35478   0.37161   0.39264   0.40446

 Mulliken atomic charges:
              1
     1  N   -0.236020
     2  H    0.174135
     3  C   -0.153362
     4  H    0.149611
     5  C   -0.114923
     6  H    0.141196
     7  H    0.141479
     8  C   -0.026768
     9  N   -0.075348
 Sum of Mulliken atomic charges =   0.00000

 Dipole moment (field-independent basis, Debye):
    X=              1.0965    Y=              3.6088    Z=              0.0000  Tot=              3.7718
 Quadrupole moment (field-independent basis, Debye-Ang):
   XX=            -26.5779   YY=            -25.6466   ZZ=            -31.9445
   XY=             -3.3430   XZ=              0.0000   YZ=              0.0000

  Exact polarizability:  52.439  -1.043  50.094   0.000   0.000  26.879
 Approx polarizability:  63.505   0.513  64.927   0.000   0.000  35.105

                     1                      2                      3
                    A"                     A"                     A"
 Frequencies --   525.4939               650.3007               684.9824
 Red. masses --     1.5169                 2.2669                 2.9138
 Frc consts  --     0.2468                 0.5648                 0.8055
 IR Inten    --    87.6014                10.2453                 4.2355

                     4                      5                      6
                    A"                     A"                     A"
 Frequencies --   738.2718               824.9439               877.6034
 Red. masses --     1.2314                 1.3678                 1.3408
 Frc consts  --     0.3955                 0.5484                 0.6084
 IR Inten    --    35.9572                33.7206                 4.3986

                     7                      8                      9
                    A'                     A'                     A'
 Frequencies --   906.7703               944.6232              1079.3363
 Red. masses --     5.4038                 4.4683                 1.6311
 Frc consts  --     2.6179                 2.3491                 1.1196
 IR Inten    --     8.2791                 1.5411                36.9760

                    10                     11                     12
                    A'                     A'                     A'
 Frequencies --  1099.7316              1151.2129              1164.0095
 Red. masses --     1.5416                 1.3690                 6.7549
 Frc consts  --     1.0985                 1.0690                 5.3924
 IR Inten    --    16.0660                 2.4576                 4.7164

                    13                     14                     15
                    A'                     A'                     A'
 Frequencies --  1288.5765              1368.4031              1440.9397
 Red. masses --     1.4316                 3.1029                 3.0646
 Frc consts  --     1.4006                 3.4234                 3.7490
 IR Inten    --     0.5459                 6.5421                14.8353

                    16                     17                     18
                    A'                     A'                     A'
 Frequencies --  1507.5629              1555.3570              3268.1956
 Red. masses --     2.9987                 3.0816                 1.0925
 Frc consts  --     4.0154                 4.3922                 6.8752
 IR Inten    --    15.2378                10.0306                 4.8755

                    19                     20                     21
                    A'                     A'                     A'
 Frequencies --  3270.6033              3297.7292              3678.0330
 Red. masses --     1.0965                 1.1045                 1.0818
 Frc consts  --     6.9104                 7.0770                 8.6222
 IR Inten    --     0.1886                 1.2359                59.6779

 - Thermochemistry -
 -------------------
 Temperature   298.150 Kelvin.  Pressure   1.00000 Atm.
 Atom     1 has atomic number  7 and mass  14.00307

 Molecular mass:    68.03745 amu.
 Principal axes and moments of inertia in atomic units:
                           1         2         3
     Eigenvalues --   184.33419 191.37629 375.71048
           X            0.45670   0.88962   0.00000
           Y            0.88962  -0.45670   0.00000
           Z            0.00000   0.00000   1.00000
 This molecule is an asymmetric top.
 Rotational symmetry number  1.
 Rotational temperatures (Kelvin)      0.46987     0.45258     0.23053
 Rotational constants (GHZ):           9.79059     9.43033     4.80354
 Zero-point vibrational energy     187351.2 (Joules/Mol)
                                   44.77802 (Kcal/Mol)
 Warning -- explicit consideration of   1 degrees of freedom as
           vibrations may cause significant error
 Vibrational temperatures:    756.07   935.64   985.54  1062.21  1186.91
          (Kelvin)           1262.67  1304.64  1359.10  1552.92  1582.27
                             1656.34  1674.75  1853.97  1968.82  2073.19
                             2169.04  2237.81  4702.20  4705.66  4744.69
                             5291.86

 Zero-point correction=                           0.071358 (Hartree/Particle)
 Thermal correction to Energy=                    0.075103
 Thermal correction to Enthalpy=                  0.076048
 Thermal correction to Gibbs Free Energy=         0.045102
 Sum of electronic and zero-point Energies=           -226.042980
 Sum of electronic and thermal Energies=              -226.039235
 Sum of electronic and thermal Enthalpies=            -226.038291
 Sum of electronic and thermal Free Energies=         -226.069237

                     E (Thermal)             CV                S
                      KCal/Mol        Cal/Mol-Kelvin    Cal/Mol-Kelvin
 Total                   47.128             13.318             65.131
 Electronic               0.000              0.000              0.000
 Translational            0.889              2.981             38.570
 Rotational               0.889              2.981             24.098
 Vibrational             45.351              7.357              2.463
 Vibration     1          0.880              1.194              0.597

 Optimization completed.
    -- Stationary point found.
 Normal termination of Gaussian 09 at Wed Mar  6 12:13:02 2013.
