 Gaussian 09, Revision A.02,
 Gaussian 09:  AM64L-G09RevA.02 11-Jun-2009

 ---------------------------
 #HSEh1PBE/6-31+G** opt freq
 ---------------------------

 --------------------------------------------------
 1H imidazole C3H4N2 casno=288324 method=57 basis=4
 --------------------------------------------------
 Symbolic Z-matrix:
 Charge =  0 Multiplicity = 1

 SCF Done:  E(RHSEH1PBE) =  -225.932009546     A.U. after   12 cycles
 SCF Done:  E(RHSEH1PBE) =  -225.984972818     A.U. after   11 cycles
 SCF Done:  E(RHSEH1PBE) =  -225.992640928     A.U. after   11 cycles
 SCF Done:  E(RHSEH1PBE) =  -225.992880048     A.U. after   10 cycles
 SCF Done:  E(RHSEH1PBE) =  -225.992948306     A.U. after   10 cycles
 SCF Done:  E(RHSEH1PBE) =  -225.992952451     A.U. after    8 cycles
 Optimization completed.
    -- Stationary point found.
 Normal termination of Gaussian 09 at Sat Jul 31 15:20:02 2010.

 ----------------------------------------------------------------------
 #N Geom=AllCheck Guess=TCheck SCRF=Check GenChk RHSEH1PBE/6-31+G(d,p)
 Freq
 ----------------------------------------------------------------------

 1H imidazole C3H4N2 casno=288324 method=57 basis=4
 --------------------------------------------------
 Redundant internal coordinates taken from checkpoint file:
 /gaussian/Gau-32610.chk
 Charge =  0 Multiplicity = 1

                         Standard orientation:
 ---------------------------------------------------------------------
 Center     Atomic      Atomic             Coordinates (Angstroms)
 Number     Number       Type             X           Y           Z
 ---------------------------------------------------------------------
      1          7           0       -0.738875   -0.983017    0.000000
      2          1           0       -0.011239    2.108372    0.000000
      3          6           0        1.116223    0.300804    0.000000
      4          1           0        2.117167    0.704157    0.000000
      5          6           0        0.632154   -0.982384    0.000000
      6          1           0        1.196475   -1.904151    0.000000
      7          1           0       -2.099534    0.660548    0.000000
      8          6           0       -1.086835    0.281971    0.000000
      9          7           0        0.000000    1.101406    0.000000
 ---------------------------------------------------------------------

 SCF Done:  E(RHSEH1PBE) =  -225.992952451     A.U. after    1 cycles

 The electronic state is 1-A'.
 Alpha  occ. eigenvalues --  -14.45436 -14.37132 -10.27783 -10.25572 -10.23622
 Alpha  occ. eigenvalues --   -1.03695  -0.88761  -0.75606  -0.62544  -0.59829
 Alpha  occ. eigenvalues --   -0.56844  -0.44439  -0.44040  -0.43816  -0.40809
 Alpha  occ. eigenvalues --   -0.28677  -0.27247  -0.23183
 Alpha virt. eigenvalues --   -0.00790   0.00558   0.02259   0.03380   0.04013
 Alpha virt. eigenvalues --    0.04990   0.05721   0.06077   0.07434   0.09363
 Alpha virt. eigenvalues --    0.10848   0.11236   0.12046   0.14516   0.15969

 Mulliken atomic charges:
              1
     1  N   -0.293495
     2  H    0.323319
     3  C   -0.111341
     4  H    0.173513
     5  C   -0.108486
     6  H    0.157145
     7  H    0.165533
     8  C    0.046690
     9  N   -0.352879
 Sum of Mulliken atomic charges =   0.00000

 Dipole moment (field-independent basis, Debye):
    X=              1.1903    Y=              3.7064    Z=              0.0000  Tot=              3.8928
 Quadrupole moment (field-independent basis, Debye-Ang):
   XX=            -26.7423   YY=            -25.7670   ZZ=            -32.3373
   XY=             -3.4932   XZ=              0.0000   YZ=              0.0000

  Exact polarizability:  53.854   0.083  51.966   0.000   0.000  30.516
 Approx polarizability:  83.890   2.616  86.291   0.000   0.000  42.636

                     1                      2                      3
                    A"                     A"                     A"
 Frequencies --   540.1623               647.1814               683.6507
 Red. masses --     1.5900                 2.1834                 2.8653
 Frc consts  --     0.2733                 0.5388                 0.7890
 IR Inten    --    99.5111                14.6623                 3.8358

                     4                      5                      6
                    A"                     A"                     A"
 Frequencies --   735.7321               820.5311               877.5116
 Red. masses --     1.2321                 1.3624                 1.3346
 Frc consts  --     0.3929                 0.5404                 0.6055
 IR Inten    --    47.1577                43.1525                 5.3234

                     7                      8                      9
                    A'                     A'                     A'
 Frequencies --   905.9472               945.5513              1090.0964
 Red. masses --     5.3032                 4.5380                 1.5031
 Frc consts  --     2.5644                 2.3905                 1.0524
 IR Inten    --     5.9360                 2.3970                32.6222

                    10                     11                     12
                    A'                     A'                     A'
 Frequencies --  1114.4846              1161.8472              1197.5932
 Red. masses --     1.4465                 1.3501                 6.1516
 Frc consts  --     1.0586                 1.0738                 5.1983
 IR Inten    --    30.3379                 3.6699                 3.7706

                    13                     14                     15
                    A'                     A'                     A'
 Frequencies --  1290.8176              1401.9166              1466.3493
 Red. masses --     1.3490                 3.6915                 3.2661
 Frc consts  --     1.3243                 4.2746                 4.1377
 IR Inten    --     0.7257                 7.4829                13.9999

                    16                     17                     18
                    A'                     A'                     A'
 Frequencies --  1529.3575              1583.7241              3285.1753
 Red. masses --     3.5197                 3.5342                 1.0923
 Frc consts  --     4.8504                 5.2228                 6.9458
 IR Inten    --    22.9861                14.1132                 4.2059

                    19                     20                     21
                    A'                     A'                     A'
 Frequencies --  3290.7930              3316.6307              3709.5527
 Red. masses --     1.0971                 1.1047                 1.0820
 Frc consts  --     7.0003                 7.1597                 8.7727
 IR Inten    --     1.0204                 0.7216                65.3424

 - Thermochemistry -
 -------------------
 Temperature   298.150 Kelvin.  Pressure   1.00000 Atm.
 Atom     1 has atomic number  7 and mass  14.00307

 Molecular mass:    68.03745 amu.
 Principal axes and moments of inertia in atomic units:
                           1         2         3
     Eigenvalues --   184.02306 191.38673 375.40980
           X            0.44934   0.89336   0.00000
           Y            0.89336  -0.44934   0.00000
           Z            0.00000   0.00000   1.00000
 This molecule is an asymmetric top.
 Rotational symmetry number  1.
 Rotational temperatures (Kelvin)      0.47067     0.45256     0.23072
 Rotational constants (GHZ):           9.80715     9.42981     4.80739
 Zero-point vibrational energy     188977.7 (Joules/Mol)
                                   45.16676 (Kcal/Mol)
 Warning -- explicit consideration of   1 degrees of freedom as
           vibrations may cause significant error
 Vibrational temperatures:    777.17   931.15   983.62  1058.55  1180.56
          (Kelvin)           1262.54  1303.45  1360.44  1568.40  1603.49
                             1671.64  1723.07  1857.20  2017.04  2109.75
                             2200.40  2278.62  4726.63  4734.71  4771.89
                             5337.21

 Zero-point correction=                           0.071978 (Hartree/Particle)
 Thermal correction to Energy=                    0.075709
 Thermal correction to Enthalpy=                  0.076653
 Thermal correction to Gibbs Free Energy=         0.045728
 Sum of electronic and zero-point Energies=           -225.920975
 Sum of electronic and thermal Energies=              -225.917244
 Sum of electronic and thermal Enthalpies=            -225.916300
 Sum of electronic and thermal Free Energies=         -225.947225

                     E (Thermal)             CV                S
                      KCal/Mol        Cal/Mol-Kelvin    Cal/Mol-Kelvin
 Total                   47.508             13.221             65.087
 Electronic               0.000              0.000              0.000
 Translational            0.889              2.981             38.570
 Rotational               0.889              2.981             24.095
 Vibrational             45.730              7.259              2.422
 Vibration     1          0.895              1.161              0.565

 Optimization completed.
    -- Stationary point found.
 Normal termination of Gaussian 09 at Sat Jul 31 15:23:25 2010.
