 Gaussian 09, Revision A.02,
 Gaussian 09:  AM64L-G09RevA.02 11-Jun-2009

 ----------------------
 #M062X/6-31G* opt freq
 ----------------------

 --------------------------------------------------
 1H imidazole C3H4N2 casno=288324 method=58 basis=1
 --------------------------------------------------
 Symbolic Z-matrix:
 Charge =  0 Multiplicity = 1

 SCF Done:  E(RM062X) =  -226.057827048     A.U. after   15 cycles
 SCF Done:  E(RM062X) =  -226.111706152     A.U. after   14 cycles
 SCF Done:  E(RM062X) =  -226.119644230     A.U. after   14 cycles
 SCF Done:  E(RM062X) =  -226.119900703     A.U. after   10 cycles
 SCF Done:  E(RM062X) =  -226.119972185     A.U. after    9 cycles
 SCF Done:  E(RM062X) =  -226.119976199     A.U. after    9 cycles
 Optimization completed.
    -- Stationary point found.
 Normal termination of Gaussian 09 at Sat Jul 31 12:58:57 2010.

 --------------------------------------------------------------------
 #N Geom=AllCheck Guess=TCheck SCRF=Check GenChk RM062X/6-31G(d) Freq
 --------------------------------------------------------------------

 1H imidazole C3H4N2 casno=288324 method=58 basis=1
 --------------------------------------------------
 Redundant internal coordinates taken from checkpoint file:
 /gaussian/Gau-16227.chk
 Charge =  0 Multiplicity = 1

                         Standard orientation:
 ---------------------------------------------------------------------
 Center     Atomic      Atomic             Coordinates (Angstroms)
 Number     Number       Type             X           Y           Z
 ---------------------------------------------------------------------
      1          7           0       -0.740352   -0.982909    0.000000
      2          1           0       -0.012037    2.109994    0.000000
      3          6           0        1.116600    0.299678    0.000000
      4          1           0        2.115933    0.705140    0.000000
      5          6           0        0.632700   -0.980372    0.000000
      6          1           0        1.196378   -1.902292    0.000000
      7          1           0       -2.097748    0.661237    0.000000
      8          6           0       -1.085977    0.279773    0.000000
      9          7           0        0.000000    1.101688    0.000000
 ---------------------------------------------------------------------

 SCF Done:  E(RM062X) =  -226.119976199     A.U. after    1 cycles

 The electronic state is 1-A'.
 Alpha  occ. eigenvalues --  -14.81731 -14.73260 -10.59698 -10.57257 -10.55159
 Alpha  occ. eigenvalues --   -1.12426  -0.96918  -0.83403  -0.69448  -0.66544
 Alpha  occ. eigenvalues --   -0.63727  -0.50323  -0.50223  -0.49860  -0.46435
 Alpha  occ. eigenvalues --   -0.33635  -0.33192  -0.27804
 Alpha virt. eigenvalues --    0.07953   0.12074   0.12467   0.18400   0.20148
 Alpha virt. eigenvalues --    0.22211   0.26910   0.28641   0.35420   0.39263
 Alpha virt. eigenvalues --    0.51788   0.56693   0.59434   0.62228   0.64098

 Mulliken atomic charges:
              1
     1  N   -0.446996
     2  H    0.364310
     3  C   -0.000662
     4  H    0.186993
     5  C   -0.056891
     6  H    0.167799
     7  H    0.184693
     8  C    0.207912
     9  N   -0.607159
 Sum of Mulliken atomic charges =   0.00000

 Dipole moment (field-independent basis, Debye):
    X=              1.1356    Y=              3.6199    Z=              0.0000  Tot=              3.7939
 Quadrupole moment (field-independent basis, Debye-Ang):
   XX=            -26.0442   YY=            -25.0457   ZZ=            -31.3902
   XY=             -3.1968   XZ=              0.0000   YZ=              0.0000

  Exact polarizability:  46.693  -1.336  45.088   0.000   0.000  17.464
 Approx polarizability:  59.219   0.764  61.640   0.000   0.000  23.044

                     1                      2                      3
                    A"                     A"                     A"
 Frequencies --   527.8472               653.6116               688.8892
 Red. masses --     1.4864                 2.2965                 2.9508
 Frc consts  --     0.2440                 0.5780                 0.8251
 IR Inten    --   114.4770                 9.5692                 3.8128

                     4                      5                      6
                    A"                     A"                     A"
 Frequencies --   737.8097               828.7961               891.6249
 Red. masses --     1.2447                 1.3800                 1.3232
 Frc consts  --     0.3992                 0.5585                 0.6198
 IR Inten    --    32.8610                25.3565                 5.2274

                     7                      8                      9
                    A'                     A'                     A'
 Frequencies --   909.5491               950.7680              1096.8321
 Red. masses --     5.2636                 4.6053                 1.4769
 Frc consts  --     2.5656                 2.4528                 1.0469
 IR Inten    --     7.0315                 1.9740                31.0245

                    10                     11                     12
                    A'                     A'                     A'
 Frequencies --  1120.4634              1166.9810              1200.2401
 Red. masses --     1.4206                 1.3176                 6.3830
 Frc consts  --     1.0508                 1.0572                 5.4176
 IR Inten    --    23.1717                 2.5235                 6.0326

                    13                     14                     15
                    A'                     A'                     A'
 Frequencies --  1297.0776              1412.0583              1478.4070
 Red. masses --     1.3440                 3.6626                 3.3173
 Frc consts  --     1.3322                 4.3027                 4.2719
 IR Inten    --     0.7098                10.0898                18.7956

                    16                     17                     18
                    A'                     A'                     A'
 Frequencies --  1550.4807              1609.9980              3283.3724
 Red. masses --     3.6692                 3.8382                 1.0970
 Frc consts  --     5.1970                 5.8617                 6.9680
 IR Inten    --    21.8627                15.7256                 2.6641

                    19                     20                     21
                    A'                     A'                     A'
 Frequencies --  3288.2501              3311.3932              3689.3712
 Red. masses --     1.0913                 1.1072                 1.0821
 Frc consts  --     6.9525                 7.1531                 8.6780
 IR Inten    --     2.8273                 1.4282                72.8141

 - Thermochemistry -
 -------------------
 Temperature   298.150 Kelvin.  Pressure   1.00000 Atm.
 Atom     1 has atomic number  7 and mass  14.00307

 Molecular mass:    68.03745 amu.
 Principal axes and moments of inertia in atomic units:
                           1         2         3
     Eigenvalues --   183.87457 191.35966 375.23423
           X            0.47430   0.88037   0.00000
           Y            0.88037  -0.47430   0.00000
           Z            0.00000   0.00000   1.00000
 This molecule is an asymmetric top.
 Rotational symmetry number  1.
 Rotational temperatures (Kelvin)      0.47105     0.45262     0.23083
 Rotational constants (GHZ):           9.81507     9.43115     4.80964
 Zero-point vibrational energy     189571.1 (Joules/Mol)
                                   45.30859 (Kcal/Mol)
 Warning -- explicit consideration of   1 degrees of freedom as
           vibrations may cause significant error
 Vibrational temperatures:    759.45   940.40   991.16  1061.54  1192.45
          (Kelvin)           1282.85  1308.64  1367.94  1578.09  1612.09
                             1679.02  1726.88  1866.20  2031.63  2127.10
                             2230.79  2316.43  4724.03  4731.05  4764.35
                             5308.18

 Zero-point correction=                           0.072204 (Hartree/Particle)
 Thermal correction to Energy=                    0.075927
 Thermal correction to Enthalpy=                  0.076871
 Thermal correction to Gibbs Free Energy=         0.045955
 Sum of electronic and zero-point Energies=           -226.047772
 Sum of electronic and thermal Energies=              -226.044049
 Sum of electronic and thermal Enthalpies=            -226.043105
 Sum of electronic and thermal Free Energies=         -226.074021

                     E (Thermal)             CV                S
                      KCal/Mol        Cal/Mol-Kelvin    Cal/Mol-Kelvin
 Total                   47.645             13.141             65.068
 Electronic               0.000              0.000              0.000
 Translational            0.889              2.981             38.570
 Rotational               0.889              2.981             24.094
 Vibrational             45.867              7.179              2.404
 Vibration     1          0.883              1.188              0.592

 Optimization completed.
    -- Stationary point found.
 Normal termination of Gaussian 09 at Sat Jul 31 13:00:50 2010.
