 Gaussian 09, Revision B.01,
 Gaussian 09:  EM64L-G09RevB.01 12-Aug-2010

 ----------------------------
 #B2PLYP=FULL/6-31G* opt freq
 ----------------------------

 ---------------------------------------------------------------------
 1himidaz 1H-Imidazole casno=288324 state=1 config=1 method=59 basis=1
 ---------------------------------------------------------------------
 Symbolic Z-matrix:
 Charge =  0 Multiplicity = 1

 SCF Done:  E(RB2PLYP) =  -225.735109485     A.U. after   14 cycles
 E2(B2PLYP) =    -0.2379120488D+00 E(B2PLYP) =    -0.22597302153427D+03
 SCF Done:  E(RB2PLYP) =  -225.740638705     A.U. after   13 cycles
 E2(B2PLYP) =    -0.2418482753D+00 E(B2PLYP) =    -0.22598248698050D+03
 SCF Done:  E(RB2PLYP) =  -225.740902635     A.U. after   11 cycles
 E2(B2PLYP) =    -0.2418777050D+00 E(B2PLYP) =    -0.22598278033984D+03
 SCF Done:  E(RB2PLYP) =  -225.741026898     A.U. after    9 cycles
 E2(B2PLYP) =    -0.2418026342D+00 E(B2PLYP) =    -0.22598282953223D+03
 SCF Done:  E(RB2PLYP) =  -225.741054404     A.U. after    8 cycles
 E2(B2PLYP) =    -0.2417768974D+00 E(B2PLYP) =    -0.22598283130152D+03
 Optimization completed.
    -- Stationary point found.
 Normal termination of Gaussian 09 at Tue Jan 10 13:15:41 2012.

 ----------------------------------------------------------------------
 #N Geom=AllCheck Guess=TCheck SCRF=Check GenChk RB2PLYP-Full/6-31G(d)
 Freq
 ----------------------------------------------------------------------

 1himidaz 1H-Imidazole casno=288324 state=1 config=1 method=59 basis=1
 ---------------------------------------------------------------------
 Redundant internal coordinates taken from checkpoint file:
 /tmp/rdj3/g09-2194/Gau-2245.chk
 Charge =  0 Multiplicity = 1

                         Standard orientation:
 ---------------------------------------------------------------------
 Center     Atomic      Atomic             Coordinates (Angstroms)
 Number     Number       Type             X           Y           Z
 ---------------------------------------------------------------------
      1          7           0       -0.742998   -0.988315    0.000000
      2          1           0       -0.009738    2.114188    0.000000
      3          6           0        1.120426    0.300774    0.000000
      4          1           0        2.118686    0.707917    0.000000
      5          6           0        0.635513   -0.982686    0.000000
      6          1           0        1.198075   -1.904504    0.000000
      7          1           0       -2.101118    0.662524    0.000000
      8          6           0       -1.090091    0.282014    0.000000
      9          7           0        0.000000    1.105353    0.000000
 ---------------------------------------------------------------------

 SCF Done:  E(RB2PLYP) =  -225.741054404     A.U. after    1 cycles
 E2(B2PLYP) =    -0.2417768951D+00 E(B2PLYP) =    -0.22598283129921D+03
 E2(B2PLYP) =    -0.2417768951D+00 E(B2PLYP) =    -0.22598283129921D+03

 The electronic state is 1-A'.
 Alpha  occ. eigenvalues --  -14.90788 -14.82405 -10.67789 -10.65037 -10.63024
 Alpha  occ. eigenvalues --   -1.14368  -0.98729  -0.84763  -0.70052  -0.67194
 Alpha  occ. eigenvalues --   -0.64010  -0.50569  -0.50295  -0.49380  -0.46892
 Alpha  occ. eigenvalues --   -0.33183  -0.32430  -0.26313
 Alpha virt. eigenvalues --    0.09706   0.13101   0.14483   0.19460   0.21090
 Alpha virt. eigenvalues --    0.23133   0.29440   0.31135   0.38268   0.41775
 Alpha virt. eigenvalues --    0.54863   0.60052   0.63255   0.66009   0.67724

 Mulliken atomic charges:
              1
     1  N   -0.462816
     2  H    0.363936
     3  C    0.003286
     4  H    0.181754
     5  C   -0.039970
     6  H    0.163198
     7  H    0.180674
     8  C    0.228121
     9  N   -0.618183
 Sum of Mulliken atomic charges =   0.00000

 Dipole moment (field-independent basis, Debye):
    X=              1.1396    Y=              3.6443    Z=              0.0000  Tot=              3.8183
 Quadrupole moment (field-independent basis, Debye-Ang):
   XX=            -26.0345   YY=            -25.1995   ZZ=            -31.4390
   XY=             -3.3173   XZ=              0.0000   YZ=              0.0000

  Exact polarizability:  47.084  -1.316  45.404   0.000   0.000  17.330
 Approx polarizability:  57.119   0.929  60.029   0.000   0.000  22.478

                     1                      2                      3
                    A"                     A"                     A"
 Frequencies --   504.5173               644.9858               684.7794
 Red. masses --     1.5947                 2.6014                 2.9510
 Frc consts  --     0.2392                 0.6376                 0.8153
 IR Inten    --    99.7004                18.0818                 3.1396

                     4                      5                      6
                    A"                     A"                     A"
 Frequencies --   714.2245               798.3800               847.5438
 Red. masses --     1.2036                 1.3095                 1.2703
 Frc consts  --     0.3617                 0.4918                 0.5376
 IR Inten    --    22.2788                33.9615                 8.3792

                     7                      8                      9
                    A'                     A'                     A'
 Frequencies --   907.7074               946.7464              1092.2505
 Red. masses --     5.5050                 4.7126                 1.5963
 Frc consts  --     2.6724                 2.4887                 1.1221
 IR Inten    --     8.1104                 1.6769                33.7388

                    10                     11                     12
                    A'                     A'                     A'
 Frequencies --  1116.8339              1168.7525              1177.9555
 Red. masses --     1.5168                 1.3660                 6.3066
 Frc consts  --     1.1147                 1.0994                 5.1559
 IR Inten    --    17.8759                 2.5145                 4.7359

                    13                     14                     15
                    A'                     A'                     A'
 Frequencies --  1301.1470              1391.1162              1465.3743
 Red. masses --     1.3897                 3.1913                 3.1432
 Frc consts  --     1.3862                 3.6387                 3.9767
 IR Inten    --     0.6131                 9.3119                18.1032

                    16                     17                     18
                    A'                     A'                     A'
 Frequencies --  1529.6458              1578.4904              3294.3294
 Red. masses --     3.1631                 3.1651                 1.0920
 Frc consts  --     4.3605                 4.6464                 6.9823
 IR Inten    --    17.7988                11.8897                 6.4898

                    19                     20                     21
                    A'                     A'                     A'
 Frequencies --  3299.1323              3324.0761              3675.7392
 Red. masses --     1.0967                 1.1041                 1.0817
 Frc consts  --     7.0328                 7.1881                 8.6111
 IR Inten    --     1.7588                 2.0209                53.0348

 - Thermochemistry -
 -------------------
 Temperature   298.150 Kelvin.  Pressure   1.00000 Atm.
 Atom     1 has atomic number  7 and mass  14.00307

 Molecular mass:    68.03745 amu.
 Principal axes and moments of inertia in atomic units:
                           1         2         3
     Eigenvalues --   185.02196 192.74639 377.76836
           X            0.47501   0.87998   0.00000
           Y            0.87998  -0.47501   0.00000
           Z            0.00000   0.00000   1.00000
 This molecule is an asymmetric top.
 Rotational symmetry number  1.
 Rotational temperatures (Kelvin)      0.46813     0.44937     0.22928
 Rotational constants (GHZ):           9.75420     9.36329     4.77738
 Zero-point vibrational energy     188194.9 (Joules/Mol)
                                   44.97966 (Kcal/Mol)
 Warning -- explicit consideration of   1 degrees of freedom as
           vibrations may cause significant error
 Vibrational temperatures:    725.89   927.99   985.24  1027.61  1148.69
          (Kelvin)           1219.42  1305.99  1362.16  1571.50  1606.87
                             1681.57  1694.81  1872.06  2001.50  2108.34
                             2200.82  2271.09  4739.80  4746.71  4782.60
                             5288.56

 Zero-point correction=                           0.071680 (Hartree/Particle)
 Thermal correction to Energy=                    0.075457
 Thermal correction to Enthalpy=                  0.076401
 Thermal correction to Gibbs Free Energy=         0.045399
 Sum of electronic and zero-point Energies=           -225.911152
 Sum of electronic and thermal Energies=              -225.907374
 Sum of electronic and thermal Enthalpies=            -225.906430
 Sum of electronic and thermal Free Energies=         -225.937432

                     E (Thermal)             CV                S
                      KCal/Mol        Cal/Mol-Kelvin    Cal/Mol-Kelvin
 Total                   47.350             13.422             65.249
 Electronic               0.000              0.000              0.000
 Translational            0.889              2.981             38.570
 Rotational               0.889              2.981             24.114
 Vibrational             45.572              7.461              2.565
 Vibration     1          0.860              1.240              0.647

 Optimization completed.
    -- Stationary point found.
 Normal termination of Gaussian 09 at Tue Jan 10 13:16:47 2012.
