 Gaussian 09, Revision B.01,
 Gaussian 09:  EM64L-G09RevB.01 12-Aug-2010

 ------------------------------
 #B2PLYP=FULL/6-31+G** opt freq
 ------------------------------

 ---------------------------------------------------------------------
 1himidaz 1H-Imidazole casno=288324 state=1 config=1 method=59 basis=4
 ---------------------------------------------------------------------
 Symbolic Z-matrix:
 Charge =  0 Multiplicity = 1

 SCF Done:  E(RB2PLYP) =  -225.754748437     A.U. after   13 cycles
 E2(B2PLYP) =    -0.2483804878D+00 E(B2PLYP) =    -0.22600312892441D+03
 SCF Done:  E(RB2PLYP) =  -225.760334266     A.U. after   11 cycles
 E2(B2PLYP) =    -0.2522018343D+00 E(B2PLYP) =    -0.22601253610045D+03
 SCF Done:  E(RB2PLYP) =  -225.760536731     A.U. after   10 cycles
 E2(B2PLYP) =    -0.2522778767D+00 E(B2PLYP) =    -0.22601281460753D+03
 SCF Done:  E(RB2PLYP) =  -225.760638649     A.U. after   10 cycles
 E2(B2PLYP) =    -0.2522244567D+00 E(B2PLYP) =    -0.22601286310591D+03
 SCF Done:  E(RB2PLYP) =  -225.760673647     A.U. after    8 cycles
 E2(B2PLYP) =    -0.2521916279D+00 E(B2PLYP) =    -0.22601286527511D+03
 Optimization completed.
    -- Stationary point found.
 Normal termination of Gaussian 09 at Thu Jan 26 15:37:16 2012.

 ----------------------------------------------------------------------
 #N Geom=AllCheck Guess=TCheck SCRF=Check GenChk RB2PLYP-Full/6-31+G(d,
 p) Freq
 ----------------------------------------------------------------------

 1himidaz 1H-Imidazole casno=288324 state=1 config=1 method=59 basis=4
 ---------------------------------------------------------------------
 Redundant internal coordinates taken from checkpoint file:
 /tmp/rdj3/g09-31574/Gau-31626.chk
 Charge =  0 Multiplicity = 1

                         Standard orientation:
 ---------------------------------------------------------------------
 Center     Atomic      Atomic             Coordinates (Angstroms)
 Number     Number       Type             X           Y           Z
 ---------------------------------------------------------------------
      1          7           0       -0.742494   -0.988108    0.000000
      2          1           0       -0.011156    2.113590    0.000000
      3          6           0        1.121052    0.301172    0.000000
      4          1           0        2.119050    0.704888    0.000000
      5          6           0        0.636670   -0.985155    0.000000
      6          1           0        1.198801   -1.904732    0.000000
      7          1           0       -2.101902    0.661682    0.000000
      8          6           0       -1.092278    0.283481    0.000000
      9          7           0        0.000000    1.106334    0.000000
 ---------------------------------------------------------------------

 SCF Done:  E(RB2PLYP) =  -225.760673647     A.U. after    1 cycles
 E2(B2PLYP) =    -0.2521916251D+00 E(B2PLYP) =    -0.22601286527235D+03
 E2(B2PLYP) =    -0.2521916251D+00 E(B2PLYP) =    -0.22601286527235D+03

 The electronic state is 1-A'.
 Alpha  occ. eigenvalues --  -14.92005 -14.83970 -10.68952 -10.66229 -10.64260
 Alpha  occ. eigenvalues --   -1.15557  -0.99918  -0.85891  -0.71060  -0.68252
 Alpha  occ. eigenvalues --   -0.64957  -0.51602  -0.51228  -0.50413  -0.47980
 Alpha  occ. eigenvalues --   -0.34368  -0.33630  -0.27417
 Alpha virt. eigenvalues --    0.02437   0.04887   0.05662   0.06220   0.07732
 Alpha virt. eigenvalues --    0.08464   0.08581   0.10590   0.10637   0.12631
 Alpha virt. eigenvalues --    0.13146   0.15322   0.15759   0.17388   0.18591

 Mulliken atomic charges:
              1
     1  N   -0.343723
     2  H    0.322373
     3  C   -0.079260
     4  H    0.163776
     5  C   -0.077585
     6  H    0.146160
     7  H    0.155358
     8  C    0.118197
     9  N   -0.405298
 Sum of Mulliken atomic charges =   0.00000

 Dipole moment (field-independent basis, Debye):
    X=              1.1940    Y=              3.7615    Z=              0.0000  Tot=              3.9465
 Quadrupole moment (field-independent basis, Debye-Ang):
   XX=            -26.8340   YY=            -26.0571   ZZ=            -32.6932
   XY=             -3.6372   XZ=              0.0000   YZ=              0.0000

  Exact polarizability:  54.143   0.141  52.404   0.000   0.000  31.135
 Approx polarizability:  62.750   1.485  65.260   0.000   0.000  36.254

                     1                      2                      3
                    A"                     A"                     A"
 Frequencies --   503.7998               635.4127               674.3658
 Red. masses --     1.6250                 2.4491                 3.0114
 Frc consts  --     0.2430                 0.5826                 0.8069
 IR Inten    --    93.4931                17.2807                 3.4904

                     4                      5                      6
                    A"                     A"                     A"
 Frequencies --   718.2924               801.8396               851.4588
 Red. masses --     1.2120                 1.3025                 1.2753
 Frc consts  --     0.3684                 0.4934                 0.5447
 IR Inten    --    41.0461                49.3832                 9.4199

                     7                      8                      9
                    A'                     A'                     A'
 Frequencies --   905.0198               942.3430              1085.9125
 Red. masses --     5.5217                 4.6796                 1.6115
 Frc consts  --     2.6647                 2.4484                 1.1196
 IR Inten    --     5.7674                 2.3345                38.4002

                    10                     11                     12
                    A'                     A'                     A'
 Frequencies --  1109.1420              1160.5978              1171.6974
 Red. masses --     1.5319                 1.4006                 5.8287
 Frc consts  --     1.1103                 1.1115                 4.7147
 IR Inten    --    21.9510                 3.8355                 3.9078

                    13                     14                     15
                    A'                     A'                     A'
 Frequencies --  1295.2405              1383.4369              1454.9697
 Red. masses --     1.3915                 3.2342                 3.0668
 Frc consts  --     1.3754                 3.6470                 3.8252
 IR Inten    --     0.6735                 7.5494                18.0356

                    16                     17                     18
                    A'                     A'                     A'
 Frequencies --  1516.2757              1566.4004              3299.7384
 Red. masses --     3.0919                 3.0943                 1.0917
 Frc consts  --     4.1882                 4.4732                 7.0036
 IR Inten    --    23.1659                10.3735                 3.6639

                    19                     20                     21
                    A'                     A'                     A'
 Frequencies --  3305.0229              3326.5083              3699.5011
 Red. masses --     1.0966                 1.1047                 1.0821
 Frc consts  --     7.0577                 7.2022                 8.7259
 IR Inten    --     0.9940                 1.0699                64.6325

 - Thermochemistry -
 -------------------
 Temperature   298.150 Kelvin.  Pressure   1.00000 Atm.
 Atom     1 has atomic number  7 and mass  14.00307

 Molecular mass:    68.03745 amu.
 Principal axes and moments of inertia in atomic units:
                           1         2         3
     Eigenvalues --   185.54371 192.85625 378.39995
           X            0.45822   0.88884   0.00000
           Y            0.88884  -0.45822   0.00000
           Z            0.00000   0.00000   1.00000
 This molecule is an asymmetric top.
 Rotational symmetry number  1.
 Rotational temperatures (Kelvin)      0.46681     0.44911     0.22889
 Rotational constants (GHZ):           9.72677     9.35796     4.76940
 Zero-point vibrational energy     187855.4 (Joules/Mol)
                                   44.89852 (Kcal/Mol)
 Warning -- explicit consideration of   1 degrees of freedom as
           vibrations may cause significant error
 Vibrational temperatures:    724.85   914.22   970.26  1033.46  1153.67
          (Kelvin)           1225.06  1302.12  1355.82  1562.38  1595.81
                             1669.84  1685.81  1863.56  1990.45  2093.37
                             2181.58  2253.70  4747.58  4755.18  4786.10
                             5322.75

 Zero-point correction=                           0.071550 (Hartree/Particle)
 Thermal correction to Energy=                    0.075339
 Thermal correction to Enthalpy=                  0.076283
 Thermal correction to Gibbs Free Energy=         0.045263
 Sum of electronic and zero-point Energies=           -225.941315
 Sum of electronic and thermal Energies=              -225.937527
 Sum of electronic and thermal Enthalpies=            -225.936582
 Sum of electronic and thermal Free Energies=         -225.967602

                     E (Thermal)             CV                S
                      KCal/Mol        Cal/Mol-Kelvin    Cal/Mol-Kelvin
 Total                   47.276             13.491             65.286
 Electronic               0.000              0.000              0.000
 Translational            0.889              2.981             38.570
 Rotational               0.889              2.981             24.119
 Vibrational             45.498              7.529              2.597
 Vibration     1          0.859              1.242              0.649

 Optimization completed.
    -- Stationary point found.
 Normal termination of Gaussian 09 at Thu Jan 26 15:41:41 2012.
