 Gaussian 09, Revision B.01,
 Gaussian 09:  EM64L-G09RevB.01 12-Aug-2010

 ---------------------------
 #B2PLYP=FULL/3-21G opt freq
 ---------------------------

 ---------------------------------------------------------------------
 1himidaz 1H-Imidazole casno=288324 state=1 config=1 method=59 basis=2
 ---------------------------------------------------------------------
 Symbolic Z-matrix:
 Charge =  0 Multiplicity = 1

 SCF Done:  E(RB2PLYP) =  -224.472045484     A.U. after   14 cycles
 E2(B2PLYP) =    -0.1602910106D+00 E(B2PLYP) =    -0.22463233649467D+03
 SCF Done:  E(RB2PLYP) =  -224.480847343     A.U. after   13 cycles
 E2(B2PLYP) =    -0.1667014916D+00 E(B2PLYP) =    -0.22464754883463D+03
 SCF Done:  E(RB2PLYP) =  -224.480710813     A.U. after   12 cycles
 E2(B2PLYP) =    -0.1674990890D+00 E(B2PLYP) =    -0.22464820990175D+03
 SCF Done:  E(RB2PLYP) =  -224.480854059     A.U. after   10 cycles
 E2(B2PLYP) =    -0.1675291685D+00 E(B2PLYP) =    -0.22464838322709D+03
 SCF Done:  E(RB2PLYP) =  -224.481034024     A.U. after    9 cycles
 E2(B2PLYP) =    -0.1673703147D+00 E(B2PLYP) =    -0.22464840433842D+03
 SCF Done:  E(RB2PLYP) =  -224.481096914     A.U. after    8 cycles
 E2(B2PLYP) =    -0.1673096631D+00 E(B2PLYP) =    -0.22464840657713D+03
 Optimization completed.
    -- Stationary point found.
 Normal termination of Gaussian 09 at Fri Jan 13 13:37:59 2012.

 ----------------------------------------------------------------------
 #N Geom=AllCheck Guess=TCheck SCRF=Check GenChk RB2PLYP-Full/3-21G Fre
 q
 ----------------------------------------------------------------------

 1himidaz 1H-Imidazole casno=288324 state=1 config=1 method=59 basis=2
 ---------------------------------------------------------------------
 Redundant internal coordinates taken from checkpoint file:
 /tmp/rdj3/g09-1624/Gau-1676.chk
 Charge =  0 Multiplicity = 1

                         Standard orientation:
 ---------------------------------------------------------------------
 Center     Atomic      Atomic             Coordinates (Angstroms)
 Number     Number       Type             X           Y           Z
 ---------------------------------------------------------------------
      1          7           0       -0.754340   -0.995667    0.000000
      2          1           0        0.001370    2.129790    0.000000
      3          6           0        1.131725    0.297342    0.000000
      4          1           0        2.129863    0.693677    0.000000
      5          6           0        0.654530   -0.992462    0.000000
      6          1           0        1.213541   -1.909332    0.000000
      7          1           0       -2.116978    0.665090    0.000000
      8          6           0       -1.110824    0.288160    0.000000
      9          7           0        0.000000    1.118886    0.000000
 ---------------------------------------------------------------------

 SCF Done:  E(RB2PLYP) =  -224.481096914     A.U. after    1 cycles
 E2(B2PLYP) =    -0.1673096623D+00 E(B2PLYP) =    -0.22464840657636D+03
 E2(B2PLYP) =    -0.1673096623D+00 E(B2PLYP) =    -0.22464840657636D+03

 The electronic state is 1-A'.
 Alpha  occ. eigenvalues --  -14.83208 -14.75116 -10.62603 -10.60062 -10.57737
 Alpha  occ. eigenvalues --   -1.14654  -0.98998  -0.85285  -0.69934  -0.67439
 Alpha  occ. eigenvalues --   -0.64489  -0.50985  -0.50835  -0.49250  -0.47571
 Alpha  occ. eigenvalues --   -0.32049  -0.31823  -0.27113
 Alpha virt. eigenvalues --    0.09517   0.14585   0.15934   0.21446   0.23180
 Alpha virt. eigenvalues --    0.25585   0.30825   0.32907   0.44226   0.47229
 Alpha virt. eigenvalues --    0.55986   0.78889   0.81189   0.82415   0.86101

 Mulliken atomic charges:
              1
     1  N   -0.542465
     2  H    0.348461
     3  C    0.033777
     4  H    0.232378
     5  C   -0.072419
     6  H    0.217973
     7  H    0.241288
     8  C    0.310955
     9  N   -0.769949
 Sum of Mulliken atomic charges =   0.00000

 Dipole moment (field-independent basis, Debye):
    X=              1.2502    Y=              3.7232    Z=              0.0000  Tot=              3.9275
 Quadrupole moment (field-independent basis, Debye-Ang):
   XX=            -25.9500   YY=            -25.4838   ZZ=            -32.0631
   XY=             -3.5357   XZ=              0.0000   YZ=              0.0000

  Exact polarizability:  43.937  -1.860  42.296   0.000   0.000  12.609
 Approx polarizability:  53.608   0.926  58.395   0.000   0.000  13.539

                     1                      2                      3
                    A"                     A"                     A"
 Frequencies --   630.5274               657.7902               685.6003
 Red. masses --     1.8454                 1.5775                 3.2166
 Frc consts  --     0.4323                 0.4022                 0.8908
 IR Inten    --   130.6471                41.0802                 4.3430

                     4                      5                      6
                    A"                     A"                     A"
 Frequencies --   770.2967               848.3384               902.3064
 Red. masses --     1.2449                 1.3945                 1.3706
 Frc consts  --     0.4352                 0.5913                 0.6575
 IR Inten    --    36.0753                26.3384                 3.0704

                     7                      8                      9
                    A'                     A'                     A'
 Frequencies --   919.0538               962.3607              1045.2692
 Red. masses --     6.2649                 4.3812                 2.4663
 Frc consts  --     3.1178                 2.3906                 1.5876
 IR Inten    --    11.0117                 2.7630                18.2712

                    10                     11                     12
                    A'                     A'                     A'
 Frequencies --  1086.8388              1092.0958              1163.6207
 Red. masses --     2.0548                 4.9397                 1.3767
 Frc consts  --     1.4301                 3.4712                 1.0983
 IR Inten    --     8.5076                25.6077                 1.3461

                    13                     14                     15
                    A'                     A'                     A'
 Frequencies --  1279.1247              1323.5152              1400.2316
 Red. masses --     2.1706                 1.9164                 1.9453
 Frc consts  --     2.0924                 1.9778                 2.2472
 IR Inten    --     5.7937                 8.6931                11.6697

                    16                     17                     18
                    A'                     A'                     A'
 Frequencies --  1467.0614              1533.7605              3313.2706
 Red. masses --     2.3177                 2.3815                 1.0915
 Frc consts  --     2.9390                 3.3008                 7.0597
 IR Inten    --     6.0967                20.0821                 2.9616

                    19                     20                     21
                    A'                     A'                     A'
 Frequencies --  3315.3731              3338.6186              3607.6768
 Red. masses --     1.0955                 1.1072                 1.0820
 Frc consts  --     7.0949                 7.2711                 8.2971
 IR Inten    --     0.4811                 1.1588                57.6679

 - Thermochemistry -
 -------------------
 Temperature   298.150 Kelvin.  Pressure   1.00000 Atm.
 Atom     1 has atomic number  7 and mass  14.00307

 Molecular mass:    68.03745 amu.
 Principal axes and moments of inertia in atomic units:
                           1         2         3
     Eigenvalues --   190.83068 195.79625 386.62692
           X            0.53540   0.84460   0.00000
           Y            0.84460  -0.53540   0.00000
           Z            0.00000   0.00000   1.00000
 This molecule is an asymmetric top.
 Rotational symmetry number  1.
 Rotational temperatures (Kelvin)      0.45388     0.44237     0.22402
 Rotational constants (GHZ):           9.45729     9.21745     4.66791
 Zero-point vibrational energy     187471.2 (Joules/Mol)
                                   44.80668 (Kcal/Mol)
 Vibrational temperatures:    907.19   946.41   986.42  1108.28  1220.57
          (Kelvin)           1298.22  1322.31  1384.62  1503.91  1563.72
                             1571.28  1674.19  1840.37  1904.24  2014.62
                             2110.77  2206.74  4767.05  4770.08  4803.52
                             5190.64

 Zero-point correction=                           0.071404 (Hartree/Particle)
 Thermal correction to Energy=                    0.075071
 Thermal correction to Enthalpy=                  0.076015
 Thermal correction to Gibbs Free Energy=         0.045146
 Sum of electronic and zero-point Energies=           -224.577003
 Sum of electronic and thermal Energies=              -224.573335
 Sum of electronic and thermal Enthalpies=            -224.572391
 Sum of electronic and thermal Free Energies=         -224.603261

                     E (Thermal)             CV                S
                      KCal/Mol        Cal/Mol-Kelvin    Cal/Mol-Kelvin
 Total                   47.108             13.056             64.971
 Electronic               0.000              0.000              0.000
 Translational            0.889              2.981             38.570
 Rotational               0.889              2.981             24.183
 Vibrational             45.330              7.094              2.217

 Optimization completed.
    -- Stationary point found.
 Normal termination of Gaussian 09 at Fri Jan 13 13:38:19 2012.
