 Gaussian 98, Revision A.4,
 Gaussian 98:  IBM-RS6000-G98RevA.4 11-Sep-1998

 ----------------------
 #QCISD/6-31G* opt freq
 ----------------------

 --------------------------------
 1H imidazole C3H4N2 casno=288324
 --------------------------------
 Symbolic Z-matrix:
 Charge =  0 Multiplicity = 1

 SCF Done:  E(RHF) =  -224.811779496     A.U. after   15 cycles
 Optimization completed.
    -- Stationary point found.
 Normal termination of Gaussian 98.

 ------------------------------------------------------
 #N Geom=AllCheck Guess=TCheck RQCISD(FC)/6-31G(d) Freq
 ------------------------------------------------------

 1H imidazole C3H4N2 casno=288324
 --------------------------------
 Redundant internal coordinates taken from checkpointfile:
 /wrk/rdj3/Gau-10982.chk
 Charge =  0 Multiplicity = 1

                         Standard orientation:
 ---------------------------------------------------------------------
 Center     Atomic     Atomic              Coordinates (Angstroms)
 Number     Number      Type              X           Y           Z
 ---------------------------------------------------------------------
    1          7             0       -0.747537   -0.987930    0.000000
    2          1             0       -0.010720    2.117694    0.000000
    3          6             0        1.121573    0.298670    0.000000
    4          1             0        2.124281    0.703659    0.000000
    5          6             0        0.638189   -0.982647    0.000000
    6          1             0        1.200558   -1.908254    0.000000
    7          1             0       -2.103866    0.663130    0.000000
    8          6             0       -1.089345    0.282174    0.000000
    9          7             0        0.000000    1.107158    0.000000
 ---------------------------------------------------------------------

 SCF Done:  E(RHF) =  -224.811779496     A.U. after    1 cycles
 SCF Done:  E(RHF) =  -224.811792641     A.U. after    9 cycles
 SCF Done:  E(RHF) =  -224.811764569     A.U. after    9 cycles
 SCF Done:  E(RHF) =  -224.811842351     A.U. after    9 cycles
 SCF Done:  E(RHF) =  -224.811714333     A.U. after    9 cycles
 SCF Done:  E(RHF) =  -224.811779257     A.U. after    7 cycles
 SCF Done:  E(RHF) =  -224.811778372     A.U. after    7 cycles
 SCF Done:  E(RHF) =  -224.811780348     A.U. after    7 cycles
 SCF Done:  E(RHF) =  -224.811746633     A.U. after    7 cycles
 SCF Done:  E(RHF) =  -224.811805993     A.U. after    9 cycles
 SCF Done:  E(RHF) =  -224.811749743     A.U. after    9 cycles
 SCF Done:  E(RHF) =  -224.811748005     A.U. after    9 cycles
 SCF Done:  E(RHF) =  -224.811808335     A.U. after    9 cycles
 SCF Done:  E(RHF) =  -224.811779158     A.U. after    7 cycles
 SCF Done:  E(RHF) =  -224.811766925     A.U. after    8 cycles
 SCF Done:  E(RHF) =  -224.811789673     A.U. after    8 cycles
 SCF Done:  E(RHF) =  -224.811772630     A.U. after    8 cycles
 SCF Done:  E(RHF) =  -224.811782652     A.U. after    8 cycles
 SCF Done:  E(RHF) =  -224.811779310     A.U. after    7 cycles

  The electronic state is 1-A'.
 Alpha  occ. eigenvalues --  -15.62468 -15.54403 -11.29523 -11.26087 -11.24049
 Alpha  occ. eigenvalues --   -1.33247  -1.15846  -1.00138  -0.82168  -0.79232
 Alpha  occ. eigenvalues --   -0.75184  -0.60273  -0.59652  -0.58939  -0.56205
 Alpha  occ. eigenvalues --   -0.43006  -0.39046  -0.31582
 Alpha virt. eigenvalues --    0.18919   0.21670   0.24281   0.28033   0.29597
 Alpha virt. eigenvalues --    0.31665   0.39392   0.41175   0.48751   0.51575
 Alpha virt. eigenvalues --    0.67431   0.71601   0.76852   0.79943   0.80977

                     1                      2                      3
                    A"                     A"                     A"
 Frequencies --   476.0326               636.0024               679.8840
 Red. masses --     1.5866                 2.7376                 2.7862
 Frc consts  --     0.2118                 0.6524                 0.7588
 IR Inten    --   110.1223                18.1024                 7.1342
 Raman Activ --     0.0000                 0.0000                 0.0000

                     4                      5                      6
                    A"                     A"                     A"
 Frequencies --   716.2794               819.1983               838.7250
 Red. masses --     1.2111                 1.3184                 1.2609
 Frc consts  --     0.3661                 0.5213                 0.5226
 IR Inten    --    28.7302                35.0097                 5.2118
 Raman Activ --     0.0000                 0.0000                 0.0000

                     7                      8                      9
                    A'                     A'                     A'
 Frequencies --   914.1345               951.0622              1100.6553
 Red. masses --     5.5619                 4.7365                 1.5764
 Frc consts  --     2.7384                 2.5242                 1.1252
 IR Inten    --     7.1463                 1.8592                38.9032
 Raman Activ --     0.0000                 0.0000                 0.0000

                    10                     11                     12
                    A'                     A'                     A'
 Frequencies --  1127.7598              1174.6840              1181.9434
 Red. masses --     1.4804                 4.9759                 1.4095
 Frc consts  --     1.1093                 4.0454                 1.1601
 IR Inten    --    13.1954                 5.2153                 3.7817
 Raman Activ --     0.0000                 0.0000                 0.0000

                    13                     14                     15
                    A'                     A'                     A'
 Frequencies --  1311.3103              1406.8552              1489.4170
 Red. masses --     1.3593                 3.2292                 3.0216
 Frc consts  --     1.3771                 3.7657                 3.9494
 IR Inten    --     0.5514                 9.4661                25.0707
 Raman Activ --     0.0000                 0.0000                 0.0000

                    16                     17                     18
                    A'                     A'                     A'
 Frequencies --  1555.2085              1607.9187              3280.7249
 Red. masses --     3.4406                 3.5936                 1.0923
 Frc consts  --     4.9030                 5.4740                 6.9268
 IR Inten    --    19.5621                13.1868                 6.4104
 Raman Activ --     0.0000                 0.0000                 0.0000

                    19                     20                     21
                    A'                     A'                     A'
 Frequencies --  3284.1954              3310.1665              3684.4419
 Red. masses --     1.0978                 1.1063                 1.0820
 Frc consts  --     6.9764                 7.1422                 8.6539
 IR Inten    --     1.8965                 2.3601                63.3156
 Raman Activ --     0.0000                 0.0000                 0.0000

 - Thermochemistry -
 -------------------
 Temperature   298.150 Kelvin.  Pressure   1.00000 Atm.
 Atom  1 has atomic number  7 and mass  14.00307

 Molecular mass:    68.03745 amu.
 Principal axes and moments of inertia in atomic units:
                           1         2         3
     EIGENVALUES --   185.63066 193.00539 378.63605
           X            0.49501   0.86889   0.00000
           Y            0.86889  -0.49501   0.00000
           Z            0.00000   0.00000   1.00000
 THIS MOLECULE IS AN ASYMMETRIC TOP.
 ROTATIONAL SYMMETRY NUMBER  1.
 ROTATIONAL TEMPERATURES (KELVIN)      0.46659     0.44876     0.22875
 ROTATIONAL CONSTANTS (GHZ)            9.72221     9.35073     4.76643
 Zero-point vibrational energy     188690.6 (Joules/Mol)
                                   45.09813 (Kcal/Mol)
 WARNING-- EXPLICIT CONSIDERATION OF   1 DEGREES OF FREEDOM AS
           VIBRATIONS MAY CAUSE SIGNIFICANT ERROR
 VIBRATIONAL TEMPERATURES:    684.90   915.06   978.20  1030.56  1178.64
          (KELVIN)           1206.73  1315.23  1368.36  1583.59  1622.59
                             1690.10  1700.54  1886.67  2024.14  2142.93
                             2237.59  2313.42  4720.20  4725.20  4762.56
                             5301.06

 Zero-point correction=                           0.071868 (Hartree/Particle)
 Thermal correction to Energy=                    0.075662
 Thermal correction to Enthalpy=                  0.076607
 Thermal correction to Gibbs Free Energy=         0.045571
 Sum of electronic and zero-point Energies=           -225.470743
 Sum of electronic and thermal Energies=              -225.466949
 Sum of electronic and thermal Enthalpies=            -225.466005
 Sum of electronic and thermal Free Energies=         -225.497040

                     E (Thermal)             CV                S
                      KCAL/MOL        CAL/MOL-KELVIN    CAL/MOL-KELVIN
 TOTAL                   47.479             13.424             65.319
 ELECTRONIC               0.000              0.000              0.000
 TRANSLATIONAL            0.889              2.981             38.570
 ROTATIONAL               0.889              2.981             24.121
 VIBRATIONAL             45.701              7.462              2.628
 VIBRATION  1             0.833              1.303              0.721
                       Q            LOG10(Q)             LN(Q)
 TOTAL BOT       0.109330D-20        -20.961262        -48.265089
 TOTAL V=0       0.124654D+13         12.095707         27.851394
 VIB (BOT)       0.118874D-32        -32.924914        -75.812416
 VIB (BOT)  1    0.352530D+00         -0.452804         -1.042620
 VIB (V=0)       0.135536D+01          0.132054          0.304066
 VIB (V=0)  1    0.111178D+01          0.046020          0.105964
 ELECTRONIC      0.100000D+01          0.000000          0.000000
 TRANSLATIONAL   0.220588D+08          7.343582         16.909224
 ROTATIONAL      0.416937D+05          4.620070         10.638104
 ***** Axes restored to original set *****
 -------------------------------------------------------------------
 Center     Atomic                   Forces (Hartrees/Bohr)
 Number     Number              X              Y              Z
 -------------------------------------------------------------------
    1          7          -0.000019899   -0.000146444    0.000000000
    2          1           0.000008881    0.000021095    0.000000000
    3          6           0.000203267    0.000136388    0.000000000
    4          1           0.000062795    0.000037769    0.000000000
    5          6          -0.000172880   -0.000068591    0.000000000
    6          1           0.000017613   -0.000030294    0.000000000
    7          1          -0.000087449   -0.000030103    0.000000000
    8          6           0.000098784    0.000182802    0.000000000
    9          7          -0.000111111   -0.000102621    0.000000000
 -------------------------------------------------------------------
 Cartesian Forces:  Max     0.000203267 RMS     0.000085652

 GradGradGradGradGradGradGradGradGradGradGradGradGradGradGradGradGradGrad
 Berny optimization.
 Internal  Forces:  Max     0.000186839 RMS     0.000050233
 Search for a local minimum.
 Step number   1 out of a maximum of  48
 All quantities printed in internal units (Hartrees-Bohrs-Radians)
 Second derivative matrix not updated -- analytic derivatives used.
     Eigenvalues ---    0.00432   0.01021   0.02030   0.02745   0.05742
     Eigenvalues ---    0.06140   0.10296   0.10866   0.11462   0.12389
     Eigenvalues ---    0.23696   0.25595   0.35929   0.37848   0.38091
     Eigenvalues ---    0.38360   0.42924   0.45899   0.48413   0.50326
     Eigenvalues ---    0.600371000.000001000.000001000.000001000.00000
     Eigenvalues --- 1000.000001000.000001000.000001000.000001000.00000
     Eigenvalues --- 1000.000001000.000001000.000001000.000001000.00000
     Eigenvalues --- 1000.000001000.000001000.00000
 Angle between quadratic step and forces=  29.53 degrees.
 Linear search not attempted -- first point.
 Iteration  1 RMS(Cart)=  0.00018961 RMS(Int)=  0.00000004
 Iteration  2 RMS(Cart)=  0.00000004 RMS(Int)=  0.00000001
 Variable       Old X    -DE/DX   Delta X   Delta X   Delta X     New X
                                 (Linear)    (Quad)   (Total)
    R1        2.61866   0.00000   0.00000  -0.00013  -0.00013   2.61853
    R2        2.48554   0.00009   0.00000   0.00027   0.00027   2.48581
    R3        1.90974   0.00002   0.00000   0.00006   0.00006   1.90980
    R4        2.04356   0.00007   0.00000   0.00016   0.00016   2.04372
    R5        2.58791   0.00019   0.00000   0.00041   0.00041   2.58833
    R6        2.61273   0.00007   0.00000   0.00022   0.00022   2.61295
    R7        2.04668   0.00004   0.00000   0.00011   0.00011   2.04679
    R8        2.04787   0.00007   0.00000   0.00018   0.00018   2.04805
    R9        2.58228  -0.00002   0.00000  -0.00024  -0.00024   2.58203
    A1        1.82987  -0.00003   0.00000  -0.00013  -0.00013   1.82975
    A2        2.31540   0.00006   0.00000   0.00038   0.00038   2.31578
    A3        2.13315   0.00004   0.00000   0.00003   0.00003   2.13318
    A4        1.83463  -0.00010   0.00000  -0.00041  -0.00041   1.83423
    A5        1.93536   0.00005   0.00000   0.00026   0.00026   1.93561
    A6        2.11295  -0.00003   0.00000  -0.00007  -0.00007   2.11288
    A7        2.23488  -0.00003   0.00000  -0.00019  -0.00019   2.23469
    A8        2.19290  -0.00007   0.00000  -0.00052  -0.00052   2.19238
    A9        1.95608   0.00002   0.00000   0.00001   0.00001   1.95609
   A10        2.13421   0.00005   0.00000   0.00051   0.00051   2.13472
   A11        2.20599  -0.00004   0.00000  -0.00019  -0.00019   2.20579
   A12        2.20836  -0.00002   0.00000  -0.00007  -0.00007   2.20829
   A13        1.86884   0.00006   0.00000   0.00027   0.00027   1.86910
    D1        0.00000   0.00000   0.00000   0.00000   0.00000   0.00000
    D2        3.14159   0.00000   0.00000   0.00000   0.00000   3.14159
    D3        3.14159   0.00000   0.00000   0.00000   0.00000   3.14159
    D4        0.00000   0.00000   0.00000   0.00000   0.00000   0.00000
    D5        3.14159   0.00000   0.00000   0.00000   0.00000   3.14159
    D6        0.00000   0.00000   0.00000   0.00000   0.00000   0.00000
    D7        0.00000   0.00000   0.00000   0.00000   0.00000   0.00000
    D8        3.14159   0.00000   0.00000   0.00000   0.00000   3.14159
    D9        0.00000   0.00000   0.00000   0.00000   0.00000   0.00000
   D10        3.14159   0.00000   0.00000   0.00000   0.00000   3.14159
   D11        3.14159   0.00000   0.00000   0.00000   0.00000   3.14159
   D12        0.00000   0.00000   0.00000   0.00000   0.00000   0.00000
   D13        3.14159   0.00000   0.00000   0.00000   0.00000   3.14159
   D14        0.00000   0.00000   0.00000   0.00000   0.00000   0.00000
   D15        0.00000   0.00000   0.00000   0.00000   0.00000   0.00000
   D16        3.14159   0.00000   0.00000   0.00000   0.00000   3.14159
         Item               Value     Threshold  Converged?
 Maximum Force            0.000187     0.000450     YES
 RMS     Force            0.000050     0.000300     YES
 Maximum Displacement     0.000508     0.001800     YES
 RMS     Displacement     0.000190     0.001200     YES
 Predicted change in Energy=-1.658800D-07
 Optimization completed.
    -- Stationary point found.
                         ----------------------------
                         !   Optimized Parameters   !
                         ! (Angstroms and Degrees)  !
 ------------------------                            -------------------------
 ! Name  Definition              Value          Derivative Info.             !
 -----------------------------------------------------------------------------
 ! R1    R(1,5)                  1.3857         -DE/DX =    0.               !
 ! R2    R(1,8)                  1.3153         -DE/DX =    0.0001           !
 ! R3    R(2,9)                  1.0106         -DE/DX =    0.               !
 ! R4    R(3,4)                  1.0814         -DE/DX =    0.0001           !
 ! R5    R(3,5)                  1.3695         -DE/DX =    0.0002           !
 ! R6    R(3,9)                  1.3826         -DE/DX =    0.0001           !
 ! R7    R(5,6)                  1.0831         -DE/DX =    0.               !
 ! R8    R(7,8)                  1.0837         -DE/DX =    0.0001           !
 ! R9    R(8,9)                  1.3665         -DE/DX =    0.               !
 ! A1    A(5,1,8)              104.844          -DE/DX =    0.               !
 ! A2    A(4,3,5)              132.6628         -DE/DX =    0.0001           !
 ! A3    A(4,3,9)              122.2204         -DE/DX =    0.               !
 ! A4    A(5,3,9)              105.1168         -DE/DX =   -0.0001           !
 ! A5    A(1,5,3)              110.8877         -DE/DX =    0.0001           !
 ! A6    A(1,5,6)              121.0631         -DE/DX =    0.               !
 ! A7    A(3,5,6)              128.0492         -DE/DX =    0.               !
 ! A8    A(1,8,7)              125.6438         -DE/DX =   -0.0001           !
 ! A9    A(1,8,9)              112.0749         -DE/DX =    0.               !
 ! A10   A(7,8,9)              122.2813         -DE/DX =    0.0001           !
 ! A11   A(2,9,3)              126.3938         -DE/DX =    0.               !
 ! A12   A(2,9,8)              126.5296         -DE/DX =    0.               !
 ! A13   A(3,9,8)              107.0766         -DE/DX =    0.0001           !
 ! D1    D(8,1,5,3)              0.             -DE/DX =    0.               !
 ! D2    D(8,1,5,6)            180.             -DE/DX =    0.               !
 ! D3    D(5,1,8,7)            180.             -DE/DX =    0.               !
 ! D4    D(5,1,8,9)              0.             -DE/DX =    0.               !
 ! D5    D(4,3,5,1)            180.             -DE/DX =    0.               !
 ! D6    D(4,3,5,6)              0.             -DE/DX =    0.               !
 ! D7    D(9,3,5,1)              0.             -DE/DX =    0.               !
 ! D8    D(9,3,5,6)            180.             -DE/DX =    0.               !
 ! D9    D(4,3,9,2)              0.             -DE/DX =    0.               !
 ! D10   D(4,3,9,8)            180.             -DE/DX =    0.               !
 ! D11   D(5,3,9,2)            180.             -DE/DX =    0.               !
 ! D12   D(5,3,9,8)              0.             -DE/DX =    0.               !
 ! D13   D(1,8,9,2)            180.             -DE/DX =    0.               !
 ! D14   D(1,8,9,3)              0.             -DE/DX =    0.               !
 ! D15   D(7,8,9,2)              0.             -DE/DX =    0.               !
 ! D16   D(7,8,9,3)            180.             -DE/DX =    0.               !
 -----------------------------------------------------------------------------
 GradGradGradGradGradGradGradGradGradGradGradGradGradGradGradGradGradGrad

 1\1\GINC-PLUMBUM\Freq\RQCISD-FC\6-31G(d)\C3H4N2\RDJ3\06-Nov-1999\0\\#N
  GEOM=ALLCHECK GUESS=TCHECK RQCISD(FC)/6-31G(D) FREQ\\1H imidazole C3H
 4N2 casno=288324\\0,1\N,-0.747536988,-0.9879301194,0.\H,-0.0107196764,
 2.1176938066,0.\C,1.1215731411,0.298669693,0.\H,2.1242811817,0.7036585
 924,0.\C,0.6381890125,-0.9826472585,0.\H,1.2005579196,-1.9082543149,0.
 \H,-2.1038658223,0.6631300167,0.\C,-1.0893448606,0.2821739149,0.\N,0.0
 000002222,1.1071578056,0.\\Version=IBM-RS6000-G98RevA.4\State=1-A'\HF=
 -224.8117795\MP2=-225.5189941\MP3=-225.5330219\MP4D=-225.5506782\MP4DQ
 =-225.5337285\MP4SDQ=-225.5411528\QCISD=-225.5426112\RMSD=5.135e-10\RM
 SF=8.565e-05\Dipole=0.459759,1.4333061,0.\DipoleDeriv=-0.4184009,-0.01
 42399,0.,-0.0188742,-0.5658671,0.,0.,0.,-0.3312131,0.1903511,-0.000192
 6,0.,0.0003672,0.214694,0.,0.,0.,0.361568,-0.0014056,-0.1813233,0.,-0.
 0040887,0.2226892,0.,0.,0.,-0.1112938,-0.0048464,-0.0312341,0.,-0.0537
 508,0.0655339,0.,0.,0.,0.1788353,0.1555976,-0.0871211,0.,-0.0987686,0.
 1660321,0.,0.,0.,-0.1073717,0.0253676,0.0677241,0.,0.0764716,-0.005546
 ,0.,0.,0.,0.1450086,-0.0111677,0.0500003,0.,0.052936,0.0491919,0.,0.,0
 .,0.1459975,0.2552702,0.1847099,0.,0.0988092,0.5229646,0.,0.,0.,0.0495
 082,-0.191434,0.0116456,0.,-0.052617,-0.6695002,0.,0.,0.,-0.3311948\PG
 =CS [SG(C3H4N2)]\NImag=0\\0.47958833,-0.03955295,0.62635406,0.,0.,0.10
 259104,-0.00580485,-0.00787629,0.,0.06017472,-0.00322004,-0.00064494,0
 .,-0.00482413,0.48232518,0.,0.,0.00722307,0.,0.,0.01024774,-0.05296604
 ,-0.00524633,0.,0.01282927,-0.00648062,0.,0.83590489,-0.07829956,0.001
 37176,0.,0.02557947,-0.00587975,0.,0.14515757,0.71043573,0.,0.,0.01412
 465,0.,0.,-0.00903107,0.,0.,0.09730411,0.00074647,-0.00039469,0.,-0.00
 015915,0.00013122,0.,-0.32087264,-0.10561942,0.,0.33750799,-0.00533688
 ,-0.00451838,0.,-0.00075481,0.00033063,0.,-0.11622708,-0.10820128,0.,0
 .11385721,0.09813276,0.,0.,0.00779314,0.,0.,-0.00081938,0.,0.,-0.01788
 883,0.,0.,0.01749564,-0.27440315,-0.00007737,0.,-0.00787119,0.00163783
 ,0.,-0.13533781,-0.09168812,0.,0.00060637,-0.02203483,0.,0.61343068,-0
 .01522583,-0.10302657,0.,0.00555894,-0.00060314,0.,-0.10462843,-0.3926
 9855,0.,0.00202413,0.00693433,0.,-0.09843171,0.89396086,0.,0.,-0.06701
 694,0.,0.,0.00247688,0.,0.,-0.05544776,0.,0.,-0.00373613,0.,0.,0.12307
 247,-0.01365750,0.02790211,0.,0.00110025,-0.00021905,0.,0.01155741,-0.
 01050116,0.,-0.00019265,0.00053174,0.,-0.13251740,0.12757742,0.,0.1418
 6906,-0.00184804,0.00799947,0.,0.00110578,-0.00003613,0.,0.01659248,-0
 .01000889,0.,-0.00039879,-0.00032350,0.,0.13109254,-0.28782257,0.,-0.1
 4240072,0.29328979,0.,0.,-0.00572471,0.,0.,0.00214648,0.,0.,-0.0025603
 8,0.,0.,-0.00168540,0.,0.,-0.02645214,0.,0.,0.02239483,0.00012991,0.00
 269429,0.,-0.00060124,-0.00024581,0.,-0.00058266,-0.00438030,0.,-0.000
 42445,0.00074969,0.,0.00168596,0.00100349,0.,0.00000520,-0.00004995,0.
 ,0.34049429,0.03046842,-0.00641656,0.,0.00059829,0.00018475,0.,-0.0024
 2151,-0.00451738,0.,-0.00074343,0.00109946,0.,0.00167580,-0.00575913,0
 .,0.00162795,0.00037473,0.,-0.10379494,0.09797858,0.,0.,-0.00544294,0.
 ,0.,-0.00106668,0.,0.,0.00296587,0.,0.,0.00180557,0.,0.,0.00731876,0.,
 0.,0.00110930,0.,0.,0.02129692,-0.12580242,0.06980618,0.,0.01636067,0.
 00794597,0.,-0.09590120,0.02136126,0.,-0.00161880,0.00335433,0.,-0.059
 85303,0.03201770,0.,-0.00764556,-0.00180680,0.,-0.32363077,0.09723387,
 0.,0.86982150,0.09567390,-0.41804095,0.,-0.02378563,-0.00849550,0.,-0.
 02469409,-0.00890015,0.,0.00342555,-0.00693514,0.,0.09094169,-0.024974
 31,0.,-0.00032293,0.00097070,0.,0.09330336,-0.09532325,0.,-0.12863730,
 0.73798517,0.,0.,-0.07579791,0.,0.,-0.01008010,0.,0.,0.01475598,0.,0.,
 0.00285886,0.,0.,0.01031851,0.,0.,0.00504131,0.,0.,-0.02534040,0.,0.,0
 .13346601,-0.00782328,-0.04727698,0.,-0.07603379,0.00527698,0.,-0.2546
 3887,0.09837631,0.,-0.01560169,0.02585697,0.,-0.00572813,0.05012376,0.
 ,-0.00052429,-0.00228344,0.,-0.01708469,-0.02464005,0.,-0.27173620,-0.
 10589062,0.,0.64919239,0.01733715,-0.10307679,0.,0.00439747,-0.4671777
 6,0.,0.09797922,-0.18161958,0.,-0.01228206,0.01348220,0.,-0.01314137,-
 0.08600164,0.,-0.00418953,-0.00444421,0.,0.01071907,0.01238219,0.,-0.1
 0125632,-0.17630974,0.,0.00043283,0.99278904,0.,0.,0.02223352,0.,0.,-0
 .00109411,0.,0.,-0.04422020,0.,0.,-0.00582014,0.,0.,0.00946989,0.,0.,0
 .00573039,0.,0.,-0.00264684,0.,0.,-0.05521646,0.,0.,0.07156392\\0.0000
 1990,0.00014644,0.,-0.00000888,-0.00002109,0.,-0.00020327,-0.00013639,
 0.,-0.00006279,-0.00003777,0.,0.00017288,0.00006859,0.,-0.00001761,0.0
 0003029,0.,0.00008745,0.00003010,0.,-0.00009878,-0.00018280,0.,0.00011
 111,0.00010262,0.\\\@

 THE RED LIGHT IS ALWAYS LONGER THAN THE GREEN LIGHT.

                     -- PETER'S THEORY OF RELATIVITY
 Job cpu time:  0 days 18 hours 55 minutes 25.6 seconds.
 File lengths (MBytes):  RWF=  484 Int=    0 D2E=    0 Chk=    4 Scr=    1
 Normal termination of Gaussian 98.
