 Gaussian 98, Revision A.4,
 Gaussian 98:  x86-Linux-G98RevA.4 11-Sep-1998

 ---------------------
 #QCISD/3-21G opt freq
 ---------------------

 --------------------------------
 1H imidazole C3H4N2 casno=288324
 --------------------------------
 Symbolic Z-matrix:
 Charge =  0 Multiplicity = 1

 SCF Done:  E(RHF) =  -223.491670812     A.U. after   13 cycles
 SCF Done:  E(RHF) =  -223.541813170     A.U. after   13 cycles
 SCF Done:  E(RHF) =  -223.541872243     A.U. after   13 cycles
 SCF Done:  E(RHF) =  -223.543208337     A.U. after   12 cycles
 SCF Done:  E(RHF) =  -223.543735766     A.U. after   12 cycles
 SCF Done:  E(RHF) =  -223.544017617     A.U. after   12 cycles
 SCF Done:  E(RHF) =  -223.544026647     A.U. after    8 cycles
 Optimization completed.
    -- Stationary point found.
 Normal termination of Gaussian 98.

 ---------------------------------------------------
 #N Geom=AllCheck Guess=TCheck RQCISD(FC)/3-21G Freq
 ---------------------------------------------------

 1H imidazole C3H4N2 casno=288324
 --------------------------------
 Redundant internal coordinates taken from checkpointfile:
 /wrk/rdj3/Gau-19333.chk
 Charge =  0 Multiplicity = 1

                         Standard orientation:
 ---------------------------------------------------------------------
 Center     Atomic     Atomic              Coordinates (Angstroms)
 Number     Number      Type              X           Y           Z
 ---------------------------------------------------------------------
    1          7             0       -0.762632   -0.998720    0.000000
    2          1             0        0.000308    2.138714    0.000000
    3          6             0        1.138252    0.296344    0.000000
    4          1             0        2.142312    0.695196    0.000000
    5          6             0        0.660866   -0.996682    0.000000
    6          1             0        1.220469   -1.920110    0.000000
    7          1             0       -2.127312    0.667026    0.000000
    8          6             0       -1.115343    0.288336    0.000000
    9          7             0        0.000000    1.126032    0.000000
 ---------------------------------------------------------------------

 SCF Done:  E(RHF) =  -223.544026647     A.U. after    1 cycles
 SCF Done:  E(RHF) =  -223.544053312     A.U. after    9 cycles
 SCF Done:  E(RHF) =  -223.543998577     A.U. after    9 cycles
 SCF Done:  E(RHF) =  -223.544058150     A.U. after    9 cycles
 SCF Done:  E(RHF) =  -223.543992072     A.U. after    9 cycles
 SCF Done:  E(RHF) =  -223.543994575     A.U. after    9 cycles
 SCF Done:  E(RHF) =  -223.544056465     A.U. after    9 cycles
 SCF Done:  E(RHF) =  -223.544026282     A.U. after    7 cycles
 SCF Done:  E(RHF) =  -223.544018445     A.U. after    8 cycles
 SCF Done:  E(RHF) =  -223.544032845     A.U. after    8 cycles
 SCF Done:  E(RHF) =  -223.543997992     A.U. after    9 cycles
 SCF Done:  E(RHF) =  -223.544051838     A.U. after    9 cycles
 SCF Done:  E(RHF) =  -223.544026390     A.U. after    8 cycles

  The electronic state is 1-A'.
 Alpha  occ. eigenvalues --  -15.55117 -15.47877 -11.24972 -11.21944 -11.19503
 Alpha  occ. eigenvalues --   -1.32746  -1.15577  -1.00370  -0.81658  -0.78967
 Alpha  occ. eigenvalues --   -0.75417  -0.60303  -0.59718  -0.58583  -0.56456
 Alpha  occ. eigenvalues --   -0.41937  -0.38680  -0.32542
 Alpha virt. eigenvalues --    0.18333   0.24193   0.25369   0.30426   0.32078
 Alpha virt. eigenvalues --    0.34620   0.41036   0.43164   0.55739   0.57845
 Alpha virt. eigenvalues --    0.68799   0.93643   0.96554   0.96982   1.02049

                     1                      2                      3
                    A"                     A"                     A"
 Frequencies --   601.3037               642.8434               674.4911
 Red. masses --     1.5782                 1.8710                 3.2163
 Frc consts  --     0.3362                 0.4555                 0.8621
 IR Inten    --   155.8044                16.3553                 9.2402
 Raman Activ --     0.0000                 0.0000                 0.0000

                     4                      5                      6
                    A"                     A"                     A"
 Frequencies --   751.6476               843.2078               868.4161
 Red. masses --     1.2516                 1.3853                 1.3566
 Frc consts  --     0.4166                 0.5803                 0.6028
 IR Inten    --    39.3369                24.6570                 0.9612
 Raman Activ --     0.0000                 0.0000                 0.0000

                     7                      8                      9
                    A'                     A'                     A'
 Frequencies --   913.5568               956.9965              1027.4520
 Red. masses --     6.2772                 4.4036                 3.0885
 Frc consts  --     3.0867                 2.3762                 1.9210
 IR Inten    --     9.8995                 2.3406                10.5328
 Raman Activ --     0.0000                 0.0000                 0.0000

                    10                     11                     12
                    A'                     A'                     A'
 Frequencies --  1064.7552              1080.2707              1161.5459
 Red. masses --     3.7017                 2.1266                 1.3627
 Frc consts  --     2.4726                 1.4622                 1.0832
 IR Inten    --    37.6835                 4.1088                 1.6885
 Raman Activ --     0.0000                 0.0000                 0.0000

                    13                     14                     15
                    A'                     A'                     A'
 Frequencies --  1276.9501              1323.0447              1407.2856
 Red. masses --     2.1645                 1.7604                 2.0020
 Frc consts  --     2.0795                 1.8155                 2.3361
 IR Inten    --     6.5785                 8.7976                16.8886
 Raman Activ --     0.0000                 0.0000                 0.0000

                    16                     17                     18
                    A'                     A'                     A'
 Frequencies --  1468.5405              1535.4086              3257.0358
 Red. masses --     2.3247                 2.4170                 1.0911
 Frc consts  --     2.9539                 3.3572                 6.8196
 IR Inten    --     7.2591                20.3528                 1.8968
 Raman Activ --     0.0000                 0.0000                 0.0000

                    19                     20                     21
                    A'                     A'                     A'
 Frequencies --  3260.9161              3283.5136              3595.1810
 Red. masses --     1.0967                 1.1078                 1.0818
 Frc consts  --     6.8710                 7.0373                 8.2380
 IR Inten    --     2.6701                 1.9038                59.1431
 Raman Activ --     0.0000                 0.0000                 0.0000

 - Thermochemistry -
 -------------------
 Temperature   298.150 Kelvin.  Pressure   1.00000 Atm.
 Atom  1 has atomic number  7 and mass  14.00307

 Molecular mass:    68.03745 amu.
 Principal axes and moments of inertia in atomic units:
                           1         2         3
     EIGENVALUES --   193.05548 197.78013 390.83561
           X            0.59269   0.80543   0.00000
           Y            0.80543  -0.59269   0.00000
           Z            0.00000   0.00000   1.00000
 THIS MOLECULE IS AN ASYMMETRIC TOP.
 ROTATIONAL SYMMETRY NUMBER  1.
 ROTATIONAL TEMPERATURES (KELVIN)      0.44865     0.43793     0.22161
 ROTATIONAL CONSTANTS (GHZ)            9.34830     9.12499     4.61765
 Zero-point vibrational energy     185387.5 (Joules/Mol)
                                   44.30867 (Kcal/Mol)
 WARNING-- EXPLICIT CONSIDERATION OF   1 DEGREES OF FREEDOM AS
           VIBRATIONS MAY CAUSE SIGNIFICANT ERROR
 VIBRATIONAL TEMPERATURES:    865.14   924.90   970.44  1081.45  1213.18
          (KELVIN)           1249.45  1314.40  1376.90  1478.27  1531.94
                             1554.26  1671.20  1837.24  1903.56  2024.76
                             2112.89  2209.10  4686.12  4691.70  4724.22
                             5172.63

 Zero-point correction=                           0.070610 (Hartree/Particle)
 Thermal correction to Energy=                    0.074327
 Thermal correction to Enthalpy=                  0.075271
 Thermal correction to Gibbs Free Energy=         0.044318
 Sum of electronic and zero-point Energies=           -223.982908
 Sum of electronic and thermal Energies=              -223.979191
 Sum of electronic and thermal Enthalpies=            -223.978247
 Sum of electronic and thermal Free Energies=         -224.009201

                     E (Thermal)             CV                S
                      KCAL/MOL        CAL/MOL-KELVIN    CAL/MOL-KELVIN
 TOTAL                   46.641             13.319             65.148
 ELECTRONIC               0.000              0.000              0.000
 TRANSLATIONAL            0.889              2.981             38.570
 ROTATIONAL               0.889              2.981             24.216
 VIBRATIONAL             44.864              7.358              2.362
 VIBRATION  1             0.960              1.029              0.447
                       Q            LOG10(Q)             LN(Q)
 TOTAL BOT       0.412543D-20        -20.384531        -46.937117
 TOTAL V=0       0.124097D+13         12.093761         27.846914
 VIB (BOT)       0.427669D-32        -32.368892        -74.532129
 VIB (BOT)  1    0.247995D+00         -0.605556         -1.394345
 VIB (V=0)       0.128647D+01          0.109400          0.251903
 VIB (V=0)  1    0.105812D+01          0.024536          0.056497
 ELECTRONIC      0.100000D+01          0.000000          0.000000
 TRANSLATIONAL   0.220588D+08          7.343582         16.909224
 ROTATIONAL      0.437299D+05          4.640779         10.685788
 ***** Axes restored to original set *****
 -------------------------------------------------------------------
 Center     Atomic                   Forces (Hartrees/Bohr)
 Number     Number              X              Y              Z
 -------------------------------------------------------------------
    1          7           0.000364547    0.000000000    0.000077744
    2          1           0.000019885    0.000000000   -0.000065087
    3          6           0.000563771    0.000000000   -0.000345240
    4          1          -0.000079807    0.000000000   -0.000029709
    5          6          -0.000491327    0.000000000    0.000118648
    6          1          -0.000023248    0.000000000    0.000082309
    7          1           0.000108889    0.000000000   -0.000018290
    8          6          -0.000265930    0.000000000   -0.000298690
    9          7          -0.000196781    0.000000000    0.000478315
 -------------------------------------------------------------------
 Cartesian Forces:  Max     0.000563771 RMS     0.000218605

 GradGradGradGradGradGradGradGradGradGradGradGradGradGradGradGradGradGrad
 Berny optimization.
 Internal  Forces:  Max     0.000352525 RMS     0.000114283
 Search for a local minimum.
 Step number   1 out of a maximum of  48
 All quantities printed in internal units (Hartrees-Bohrs-Radians)
 Second derivative matrix not updated -- analytic derivatives used.
     Eigenvalues ---    0.00672   0.01184   0.02121   0.02759   0.06210
     Eigenvalues ---    0.06441   0.10321   0.10923   0.11451   0.12073
     Eigenvalues ---    0.20888   0.23304   0.29522   0.36325   0.37371
     Eigenvalues ---    0.37450   0.38202   0.41877   0.45950   0.47724
     Eigenvalues ---    0.531391000.000001000.000001000.000001000.00000
     Eigenvalues --- 1000.000001000.000001000.000001000.000001000.00000
     Eigenvalues --- 1000.000001000.000001000.000001000.000001000.00000
     Eigenvalues --- 1000.000001000.000001000.00000
 Angle between quadratic step and forces=  19.13 degrees.
 Linear search not attempted -- first point.
 Iteration  1 RMS(Cart)=  0.00036913 RMS(Int)=  0.00000012
 Iteration  2 RMS(Cart)=  0.00000012 RMS(Int)=  0.00000002
 Variable       Old X    -DE/DX   Delta X   Delta X   Delta X     New X
                                 (Linear)    (Quad)   (Total)
    R1        2.69002   0.00033   0.00000   0.00147   0.00147   2.69149
    R2        2.52186   0.00005   0.00000   0.00012   0.00012   2.52198
    R3        1.91369   0.00007   0.00000   0.00016   0.00016   1.91385
    R4        2.04162   0.00008   0.00000   0.00024   0.00024   2.04187
    R5        2.60468   0.00018   0.00000   0.00042   0.00042   2.60510
    R6        2.66176  -0.00035   0.00000  -0.00125  -0.00125   2.66051
    R7        2.04044   0.00008   0.00000   0.00014   0.00014   2.04058
    R8        2.04185   0.00011   0.00000   0.00031   0.00031   2.04216
    R9        2.63596  -0.00027   0.00000  -0.00081  -0.00081   2.63515
    A1        1.83684  -0.00007   0.00000  -0.00029  -0.00029   1.83655
    A2        2.30260  -0.00007   0.00000  -0.00061  -0.00061   2.30198
    A3        2.13360  -0.00002   0.00000   0.00019   0.00019   2.13379
    A4        1.84699   0.00009   0.00000   0.00042   0.00042   1.84741
    A5        1.92590  -0.00021   0.00000  -0.00077  -0.00077   1.92513
    A6        2.11419   0.00006   0.00000  -0.00017  -0.00017   2.11402
    A7        2.24309   0.00015   0.00000   0.00094   0.00094   2.24404
    A8        2.19635  -0.00002   0.00000  -0.00018  -0.00018   2.19617
    A9        1.94750   0.00005   0.00000   0.00019   0.00019   1.94769
   A10        2.13933  -0.00003   0.00000  -0.00001  -0.00001   2.13932
   A11        2.20036  -0.00007   0.00000  -0.00018  -0.00018   2.20018
   A12        2.21528  -0.00008   0.00000  -0.00027  -0.00027   2.21501
   A13        1.86754   0.00014   0.00000   0.00045   0.00045   1.86799
    D1        0.00000   0.00000   0.00000   0.00000   0.00000   0.00000
    D2        3.14159   0.00000   0.00000   0.00000   0.00000   3.14159
    D3        3.14159   0.00000   0.00000   0.00000   0.00000   3.14159
    D4        0.00000   0.00000   0.00000   0.00000   0.00000   0.00000
    D5        3.14159   0.00000   0.00000   0.00000   0.00000   3.14159
    D6        0.00000   0.00000   0.00000   0.00000   0.00000   0.00000
    D7        0.00000   0.00000   0.00000   0.00000   0.00000   0.00000
    D8        3.14159   0.00000   0.00000   0.00000   0.00000   3.14159
    D9        0.00000   0.00000   0.00000   0.00000   0.00000   0.00000
   D10       -3.14159   0.00000   0.00000   0.00000   0.00000  -3.14159
   D11        3.14159   0.00000   0.00000   0.00000   0.00000   3.14159
   D12        0.00000   0.00000   0.00000   0.00000   0.00000   0.00000
   D13        3.14159   0.00000   0.00000   0.00000   0.00000   3.14159
   D14        0.00000   0.00000   0.00000   0.00000   0.00000   0.00000
   D15        0.00000   0.00000   0.00000   0.00000   0.00000   0.00000
   D16       -3.14159   0.00000   0.00000   0.00000   0.00000  -3.14159
         Item               Value     Threshold  Converged?
 Maximum Force            0.000353     0.000450     YES
 RMS     Force            0.000114     0.000300     YES
 Maximum Displacement     0.000887     0.001800     YES
 RMS     Displacement     0.000369     0.001200     YES
 Predicted change in Energy=-9.013162D-07
 Optimization completed.
    -- Stationary point found.
                         ----------------------------
                         !   Optimized Parameters   !
                         ! (Angstroms and Degrees)  !
 ------------------------                            -------------------------
 ! Name  Definition              Value          Derivative Info.             !
 -----------------------------------------------------------------------------
 ! R1    R(1,5)                  1.4235         -DE/DX =    0.0003           !
 ! R2    R(1,8)                  1.3345         -DE/DX =    0.0001           !
 ! R3    R(2,9)                  1.0127         -DE/DX =    0.0001           !
 ! R4    R(3,4)                  1.0804         -DE/DX =    0.0001           !
 ! R5    R(3,5)                  1.3783         -DE/DX =    0.0002           !
 ! R6    R(3,9)                  1.4085         -DE/DX =   -0.0004           !
 ! R7    R(5,6)                  1.0798         -DE/DX =    0.0001           !
 ! R8    R(7,8)                  1.0805         -DE/DX =    0.0001           !
 ! R9    R(8,9)                  1.3949         -DE/DX =   -0.0003           !
 ! A1    A(5,1,8)              105.2433         -DE/DX =   -0.0001           !
 ! A2    A(4,3,5)              131.9291         -DE/DX =   -0.0001           !
 ! A3    A(4,3,9)              122.2462         -DE/DX =    0.               !
 ! A4    A(5,3,9)              105.8247         -DE/DX =    0.0001           !
 ! A5    A(1,5,3)              110.3462         -DE/DX =   -0.0002           !
 ! A6    A(1,5,6)              121.1341         -DE/DX =    0.0001           !
 ! A7    A(3,5,6)              128.5197         -DE/DX =    0.0001           !
 ! A8    A(1,8,7)              125.8418         -DE/DX =    0.               !
 ! A9    A(1,8,9)              111.5836         -DE/DX =    0.               !
 ! A10   A(7,8,9)              122.5746         -DE/DX =    0.               !
 ! A11   A(2,9,3)              126.0714         -DE/DX =   -0.0001           !
 ! A12   A(2,9,8)              126.9264         -DE/DX =   -0.0001           !
 ! A13   A(3,9,8)              107.0022         -DE/DX =    0.0001           !
 ! D1    D(8,1,5,3)              0.             -DE/DX =    0.               !
 ! D2    D(8,1,5,6)            180.             -DE/DX =    0.               !
 ! D3    D(5,1,8,7)            180.             -DE/DX =    0.               !
 ! D4    D(5,1,8,9)              0.             -DE/DX =    0.               !
 ! D5    D(4,3,5,1)            180.             -DE/DX =    0.               !
 ! D6    D(4,3,5,6)              0.             -DE/DX =    0.               !
 ! D7    D(9,3,5,1)              0.             -DE/DX =    0.               !
 ! D8    D(9,3,5,6)            180.             -DE/DX =    0.               !
 ! D9    D(4,3,9,2)              0.             -DE/DX =    0.               !
 ! D10   D(4,3,9,8)           -180.             -DE/DX =    0.               !
 ! D11   D(5,3,9,2)            180.             -DE/DX =    0.               !
 ! D12   D(5,3,9,8)              0.             -DE/DX =    0.               !
 ! D13   D(1,8,9,2)            180.             -DE/DX =    0.               !
 ! D14   D(1,8,9,3)              0.             -DE/DX =    0.               !
 ! D15   D(7,8,9,2)              0.             -DE/DX =    0.               !
 ! D16   D(7,8,9,3)           -180.             -DE/DX =    0.               !
 -----------------------------------------------------------------------------
 GradGradGradGradGradGradGradGradGradGradGradGradGradGradGradGradGradGrad

 1\1\GINC-QCHEM3\Freq\RQCISD-FC\3-21G\C3H4N2\RDJ3\26-Oct-1999\0\\#N GEO
 M=ALLCHECK GUESS=TCHECK RQCISD(FC)/3-21G FREQ\\1H imidazole C3H4N2 cas
 no=288324\\0,1\N,0.5138859843,0.,1.146721424\H,0.4890549263,0.,-2.0820
 47863\C,-1.0402502044,0.,-0.5489234484\H,-1.9264137251,0.,-1.166931404
 3\C,-0.8713825651,0.,0.8190308496\H,-1.627427846,0.,1.5899201718\H,2.2
 234982133,0.,-0.1625858166\C,1.1517281651,0.,-0.0254877268\N,0.2576448
 811,0.,-1.0961604432\\Version=x86-Linux-G98RevA.4\State=1-A'\HF=-223.5
 440266\MP2=-224.027706\MP3=-224.0357288\MP4D=-224.049844\MP4DQ=-224.04
 33977\MP4SDQ=-224.0503296\QCISD=-224.0535186\RMSD=3.747e-09\RMSF=2.186
 e-04\Dipole=-0.1360261,0.,-1.5136566\DipoleDeriv=-0.3614313,0.,0.07017
 65,0.,-0.3126246,0.,0.038388,0.,-0.4644263,0.1981304,0.,-0.007227,0.,0
 .3966654,0.,-0.0055961,0.,0.203374,0.0386886,0.,-0.2073691,0.,-0.08884
 96,0.,-0.0683009,0.,0.1960594,0.0205871,0.,-0.0405539,0.,0.1891135,0.,
 -0.0625577,0.,0.0465009,0.1331761,0.,-0.1786736,0.,-0.1374673,0.,-0.08
 54752,0.,0.0726113,0.0057127,0.,0.0689484,0.,0.1578309,0.,0.0622291,0.
 ,0.0342928,-0.0241148,0.,0.0154964,0.,0.1649014,0.,0.0359213,0.,0.0714
 619,0.2088432,0.,0.1490828,0.,0.0361794,0.,0.0025173,0.,0.4844121,-0.2
 196307,0.,0.1301573,0.,-0.4059357,0.,0.0832317,0.,-0.6442946\PG=CS [SG
 (C3H4N2)]\NImag=0\\0.39334973,0.,0.10232702,-0.05883012,0.,0.50163790,
 -0.00301865,0.,-0.00779437,0.08314412,0.,0.00594051,0.,0.,0.01320185,-
 0.00339999,0.,-0.00234672,-0.08883359,0.,0.43820244,-0.03564641,0.,-0.
 01810032,0.00693652,0.,-0.00542375,0.70176096,0.,0.01690530,0.,0.,-0.0
 0582888,0.,0.,0.11539576,-0.08011632,0.,-0.02637158,0.02989103,0.,-0.0
 0055809,0.17804151,0.,0.71970357,0.00169676,0.,0.00164383,-0.00012708,
 0.,0.00069235,-0.25676906,0.,-0.13905053,0.27006122,0.,0.00702887,0.,0
 .,-0.00097828,0.,0.,-0.02256862,0.,0.,0.01908384,-0.00321028,0.,-0.004
 01817,-0.00076652,0.,0.00007010,-0.14988902,0.,-0.16405606,0.15062056,
 0.,0.15778621,-0.16633575,0.,-0.00285230,-0.00846086,0.,-0.00139329,-0
 .10293860,0.,-0.02107334,0.00549437,0.,-0.02334575,0.59004310,0.,-0.06
 914833,0.,0.,0.00314881,0.,0.,-0.06597134,0.,0.,-0.00111195,0.,0.,0.13
 170993,-0.03503061,0.,-0.09529565,0.00290847,0.,0.00142918,-0.02703726
 ,0.,-0.37112549,0.00323293,0.,0.00136037,-0.18619909,0.,0.77272327,-0.
 01668164,0.,0.02026421,0.00072603,0.,0.00005323,0.00906580,0.,-0.00776
 977,-0.00009759,0.,0.00097581,-0.19799065,0.,0.14960023,0.20998747,0.,
 -0.00486513,0.,0.,0.00164737,0.,0.,-0.00095323,0.,0.,-0.00211797,0.,0.
 ,-0.02849040,0.,0.,0.02290091,-0.01020482,0.,0.01143458,0.00120687,0.,
 0.00010571,0.02223074,0.,-0.00757796,-0.00073068,0.,-0.00070964,0.1519
 2792,0.,-0.22059511,-0.15918176,0.,0.22161477,-0.00617784,0.,0.0000561
 0,-0.00060445,0.,-0.00094288,0.00113700,0.,-0.00232221,-0.00035788,0.,
 0.00028448,0.00109822,0.,0.00159428,-0.00042039,0.,-0.00002105,0.36881
 861,0.,-0.00432812,0.,0.,-0.00107001,0.,0.,0.00308015,0.,0.,0.00135348
 ,0.,0.,0.00742110,0.,0.,0.00090994,0.,0.,0.02221239,0.02973383,0.,-0.0
 0100943,0.00045515,0.,-0.00010593,-0.00095364,0.,-0.00579764,-0.000999
 77,0.,0.00116068,0.00253612,0.,-0.00396611,0.00145690,0.,0.00076674,-0
 .03786364,0.,0.06369798,-0.15716322,0.,0.08658741,0.01780173,0.,0.0158
 0629,-0.09753330,0.,-0.00621923,-0.00286624,0.,0.00472210,-0.09982022,
 0.,0.02800778,-0.00543846,0.,-0.00433355,-0.35174806,0.,0.03712440,0.8
 7978173,0.,-0.07742125,0.,0.,-0.00618810,0.,0.,0.01662408,0.,0.,0.0033
 0135,0.,0.,0.01073919,0.,0.,0.00473636,0.,0.,-0.02831558,0.,0.,0.14194
 541,0.12956184,0.,-0.27716241,-0.01833243,0.,-0.00996709,-0.04258794,0
 .,-0.01283988,0.00368440,0.,-0.00585782,0.07260047,0.,-0.01087335,-0.0
 0187464,0.,-0.00028641,0.03362751,0.,-0.06046427,-0.09924201,0.,0.5528
 5357,-0.01001248,0.,-0.02096955,-0.09639531,0.,0.08344144,-0.22601868,
 0.,0.04862114,-0.01703109,0.,0.02061036,-0.02109235,0.,0.06291073,0.00
 084725,0.,-0.00089118,-0.01174456,0.,-0.03148824,-0.18301867,0.,-0.077
 43591,0.56446467,0.,0.02354601,0.,0.,-0.00987115,0.,0.,-0.05668236,0.,
 0.,-0.00398964,0.,0.,0.01170603,0.,0.,0.00623008,0.,0.,-0.00126344,0.,
 0.,-0.06541621,0.,0.,0.09574559,0.03147290,0.,-0.10687293,0.08126558,0
 .,-0.42683026,0.04373311,0.,-0.13137766,-0.01909463,0.,0.01426195,0.00
 779793,0.,-0.07364440,-0.00351763,0.,-0.00475722,0.00558973,0.,0.00571
 715,-0.06243608,0.,-0.17540500,-0.08481200,0.,0.89891190\\-0.00036455,
 0.,-0.00007774,-0.00001989,0.,0.00006509,-0.00056377,0.,0.00034524,0.0
 0007981,0.,0.00002971,0.00049133,0.,-0.00011865,0.00002325,0.,-0.00008
 231,-0.00010889,0.,0.00001829,0.00026593,0.,0.00029869,0.00019678,0.,-
 0.00047832\\\@

 Mondays are the potholes in the road of life.
                                -- Tom Wilson
 Job cpu time:  0 days  8 hours 29 minutes 32.9 seconds.
 File lengths (MBytes):  RWF=  213 Int=    0 D2E=    0 Chk=    4 Scr=    1
 Normal termination of Gaussian 98.
