 Gaussian 03, Revision B.05,
 Gaussian 03:  SGI64-G03RevB.05  8-Nov-2003

 -------------------------
 #PBEPBE/6-31+G** opt freq
 -------------------------

 ---------------------------------------
 1himidaz casno=288324 method=61 basis=4
 ---------------------------------------
 Symbolic Z-matrix:
 Charge =  0 Multiplicity = 1

 SCF Done:  E(RPBE-PBE) =  -225.959729467     A.U. after   13 cycles
 SCF Done:  E(RPBE-PBE) =  -225.964357220     A.U. after   10 cycles
 SCF Done:  E(RPBE-PBE) =  -225.964408431     A.U. after    9 cycles
 SCF Done:  E(RPBE-PBE) =  -225.964416948     A.U. after    9 cycles
 Optimization completed.
    -- Stationary point found.
 Normal termination of Gaussian 03 at Thu Mar 25 12:57:53 2004.

 ----------------------------------------------------------------------
 #P Geom=AllCheck Guess=Read SCRF=Check GenChk RPBEPBE/6-31+G(d,p) Freq
 ----------------------------------------------------------------------

 1himidaz casno=288324 method=61 basis=4
 ---------------------------------------
 Redundant internal coordinates taken from checkpoint file:
 /wrk/rdj3/pbe4/Gau-249684.chk
 Charge =  0 Multiplicity = 1

                         Standard orientation:
 ---------------------------------------------------------------------
 Center     Atomic     Atomic              Coordinates (Angstroms)
 Number     Number      Type              X           Y           Z
 ---------------------------------------------------------------------
    1          7             0       -0.744787   -0.995067    0.000000
    2          1             0       -0.008438    2.127926    0.000000
    3          6             0        1.125987    0.305267    0.000000
    4          1             0        2.132335    0.716765    0.000000
    5          6             0        0.638421   -0.989577    0.000000
    6          1             0        1.206511   -1.918468    0.000000
    7          1             0       -2.117214    0.666130    0.000000
    8          6             0       -1.097689    0.283518    0.000000
    9          7             0        0.000000    1.111124    0.000000
 ---------------------------------------------------------------------

 SCF Done:  E(RPBE-PBE) =  -225.964416948     A.U. after    1 cycles

 The electronic state is 1-A'.
 Alpha  occ. eigenvalues --  -14.07577 -13.99452  -9.95662  -9.93708  -9.91837
 Alpha  occ. eigenvalues --   -0.93383  -0.79772  -0.67675  -0.56258  -0.53619
 Alpha  occ. eigenvalues --   -0.50949  -0.39660  -0.39373  -0.38727  -0.36254
 Alpha  occ. eigenvalues --   -0.25517  -0.23018  -0.20805
 Alpha virt. eigenvalues --   -0.02039  -0.01923   0.01347   0.01465   0.02349
 Alpha virt. eigenvalues --    0.03866   0.04778   0.04857   0.06361   0.08475
 Alpha virt. eigenvalues --    0.09956   0.09976   0.10652   0.13566   0.15108

 Mulliken atomic charges:
              1
     1  N   -0.260540
     2  H    0.307377
     3  C   -0.106561
     4  H    0.159512
     5  C   -0.108264
     6  H    0.146267
     7  H    0.155569
     8  C    0.020889
     9  N   -0.314249
 Sum of Mulliken charges=   0.00000

 Dipole moment (field-independent basis, Debye):
    X=     1.1774    Y=     3.6359    Z=     0.0000  Tot=     3.8218
 Quadrupole moment (field-independent basis, Debye-Ang):
   XX=   -27.1079   YY=   -26.0511   ZZ=   -32.5306
   XY=    -3.4276   XZ=     0.0000   YZ=     0.0000

  Exact polarizability:  57.206   0.362  55.195   0.000   0.000  31.909
 Approx polarizability: 105.079   4.225 108.006   0.000   0.000  48.645

                     1                      2                      3
                    A"                     A"                     A"
 Frequencies --   510.3864               622.7011               659.1806
 Red. masses --     1.6357                 2.2708                 2.9004
 Frc consts  --     0.2510                 0.5188                 0.7425
 IR Inten    --    85.7837                15.4276                 2.2690

                     4                      5                      6
                    A"                     A"                     A"
 Frequencies --   688.8827               759.8679               822.7703
 Red. masses --     1.2245                 1.3262                 1.3088
 Frc consts  --     0.3424                 0.4512                 0.5220
 IR Inten    --    34.3752                54.9155                 9.3809

                     7                      8                      9
                    A'                     A'                     A'
 Frequencies --   868.8935               909.7291              1050.0202
 Red. masses --     5.2962                 4.4905                 1.5416
 Frc consts  --     2.3559                 2.1896                 1.0014
 IR Inten    --     6.8708                 2.3014                27.6985

                    10                     11                     12
                    A'                     A'                     A'
 Frequencies --  1073.4630              1117.7234              1150.3115
 Red. masses --     1.4782                 1.3766                 6.0788
 Frc consts  --     1.0036                 1.0133                 4.7391
 IR Inten    --    29.4096                 4.0031                 3.2577

                    13                     14                     15
                    A'                     A'                     A'
 Frequencies --  1240.3968              1339.1435              1400.3751
 Red. masses --     1.3397                 3.5735                 3.2936
 Frc consts  --     1.2144                 3.7757                 3.8055
 IR Inten    --     0.5770                 6.3802                12.5348

                    16                     17                     18
                    A'                     A'                     A'
 Frequencies --  1462.3387              1511.6236              3194.6006
 Red. masses --     3.4275                 3.3109                 1.0913
 Frc consts  --     4.3184                 4.4574                 6.5619
 IR Inten    --    20.8237                 9.6940                 4.1022

                    19                     20                     21
                    A'                     A'                     A'
 Frequencies --  3200.9592              3223.6263              3577.5235
 Red. masses --     1.0959                 1.1038                 1.0814
 Frc consts  --     6.6159                 6.7583                 8.1543
 IR Inten    --     1.1633                 1.5090                40.0729

 - Thermochemistry -
 -------------------
 Temperature   298.150 Kelvin.  Pressure   1.00000 Atm.
 Atom  1 has atomic number  7 and mass  14.00307

 Molecular mass:    68.03745 amu.
 Principal axes and moments of inertia in atomic units:
                           1         2         3
     EIGENVALUES --   187.11614 195.22418 382.34032
           X            0.45969   0.88808   0.00000
           Y            0.88808  -0.45969   0.00000
           Z            0.00000   0.00000   1.00000
 This molecule is an asymmetric top.
 Rotational symmetry number  1.
 Rotational temperatures (Kelvin)      0.46289     0.44366     0.22654
 Rotational constants (GHZ):           9.64503     9.24446     4.72025
 Zero-point vibrational energy     181739.8 (Joules/Mol)
                                   43.43685 (Kcal/Mol)
 Warning -- explicit consideration of   1 degrees of freedom as
           vibrations may cause significant error
 Vibrational temperatures:    734.33   895.93   948.41   991.15  1093.28
          (Kelvin)           1183.78  1250.14  1308.90  1510.74  1544.47
                             1608.15  1655.04  1784.65  1926.73  2014.82
                             2103.98  2174.89  4596.31  4605.46  4638.07
                             5147.25

 Zero-point correction=                           0.069221 (Hartree/Particle)
 Thermal correction to Energy=                    0.073084
 Thermal correction to Enthalpy=                  0.074029
 Thermal correction to Gibbs Free Energy=         0.042897
 Sum of electronic and zero-point Energies=           -225.895196
 Sum of electronic and thermal Energies=              -225.891333
 Sum of electronic and thermal Enthalpies=            -225.890388
 Sum of electronic and thermal Free Energies=         -225.921520

                     E (Thermal)             CV                S
                      KCal/Mol        Cal/Mol-Kelvin    Cal/Mol-Kelvin
 Total                   45.861             14.004             65.523
 Electronic               0.000              0.000              0.000
 Translational            0.889              2.981             38.570
 Rotational               0.889              2.981             24.150
 Vibrational             44.084              8.042              2.803
 Vibration  1             0.866              1.227              0.633

 Optimization completed.
    -- Stationary point found.
 Normal termination of Gaussian 03 at Thu Mar 25 13:08:37 2004.
