 Gaussian 03, Revision B.05,
 Gaussian 03:  SGI64-G03RevB.05  8-Nov-2003

 ------------------------
 #PBEPBE/cc-pVTZ opt freq
 ------------------------

 ---------------------------------------
 1himidaz casno=288324 method=61 basis=6
 ---------------------------------------
 Symbolic Z-matrix:
 Charge =  0 Multiplicity = 1

 SCF Done:  E(RPBE-PBE) =  -226.023967334     A.U. after   15 cycles
 SCF Done:  E(RPBE-PBE) =  -226.026918914     A.U. after   12 cycles
 SCF Done:  E(RPBE-PBE) =  -226.026964367     A.U. after    9 cycles
 SCF Done:  E(RPBE-PBE) =  -226.026972398     A.U. after    8 cycles
 Optimization completed.
    -- Stationary point found.
 Normal termination of Gaussian 03 at Fri Jun 18 10:42:49 2004.

 ------------------------------------------------------------------
 #P Geom=AllCheck Guess=Read SCRF=Check GenChk RPBEPBE/CC-pVTZ Freq
 ------------------------------------------------------------------

 1himidaz casno=288324 method=61 basis=6
 ---------------------------------------
 Redundant internal coordinates taken from checkpoint file:
 /wrk/rdj3/pbe6/Gau-1684723.chk
 Charge =  0 Multiplicity = 1

                         Standard orientation:
 ---------------------------------------------------------------------
 Center     Atomic     Atomic              Coordinates (Angstroms)
 Number     Number      Type              X           Y           Z
 ---------------------------------------------------------------------
    1          7             0       -0.742536   -0.990063    0.000000
    2          1             0       -0.006165    2.119839    0.000000
    3          6             0        1.121155    0.302520    0.000000
    4          1             0        2.124320    0.712711    0.000000
    5          6             0        0.636704   -0.985943    0.000000
    6          1             0        1.204575   -1.911203    0.000000
    7          1             0       -2.109857    0.666389    0.000000
    8          6             0       -1.093712    0.282947    0.000000
    9          7             0        0.000000    1.106508    0.000000
 ---------------------------------------------------------------------

 SCF Done:  E(RPBE-PBE) =  -226.026972398     A.U. after    1 cycles

 The electronic state is 1-A'.
 Alpha  occ. eigenvalues --  -14.04776 -13.96656  -9.93468  -9.91457  -9.89670
 Alpha  occ. eigenvalues --   -0.92989  -0.79253  -0.67260  -0.55802  -0.53264
 Alpha  occ. eigenvalues --   -0.50638  -0.39292  -0.38978  -0.38634  -0.35880
 Alpha  occ. eigenvalues --   -0.25222  -0.22535  -0.20562
 Alpha virt. eigenvalues --   -0.01271   0.00557   0.02238   0.05678   0.06195
 Alpha virt. eigenvalues --    0.08057   0.13901   0.15723   0.16882   0.19808
 Alpha virt. eigenvalues --    0.25252   0.25280   0.28092   0.30663   0.30697

 Mulliken atomic charges:
              1
     1  N   -0.185260
     2  H    0.141512
     3  C   -0.126989
     4  H    0.108610
     5  C   -0.100235
     6  H    0.102879
     7  H    0.105653
     8  C   -0.034444
     9  N   -0.011724
 Sum of Mulliken charges=   0.00000

 Dipole moment (field-independent basis, Debye):
    X=     1.0682    Y=     3.4792    Z=     0.0000  Tot=     3.6395
 Quadrupole moment (field-independent basis, Debye-Ang):
   XX=   -26.8175   YY=   -25.6248   ZZ=   -31.7054
   XY=    -3.1091   XZ=     0.0000   YZ=     0.0000

  Exact polarizability:  54.906  -0.998  52.312   0.000   0.000  27.342
 Approx polarizability: 105.097   2.356 106.534   0.000   0.000  45.822

                     1                      2                      3
                    A"                     A"                     A"
 Frequencies --   517.2235               631.4979               666.4259
 Red. masses --     1.5507                 2.2409                 2.8541
 Frc consts  --     0.2444                 0.5265                 0.7468
 IR Inten    --    77.1639                10.9613                 2.5961

                     4                      5                      6
                    A"                     A"                     A"
 Frequencies --   700.2142               772.7533               833.0217
 Red. masses --     1.2342                 1.3644                 1.3397
 Frc consts  --     0.3565                 0.4800                 0.5478
 IR Inten    --    29.2028                38.5678                 5.9625

                     7                      8                      9
                    A'                     A'                     A'
 Frequencies --   873.1134               914.7126              1047.1830
 Red. masses --     5.1947                 4.2981                 1.5726
 Frc consts  --     2.3332                 2.1188                 1.0161
 IR Inten    --     9.6813                 1.6309                27.6992

                    10                     11                     12
                    A'                     A'                     A'
 Frequencies --  1067.2810              1112.0668              1145.1463
 Red. masses --     1.4912                 1.3538                 6.6684
 Frc consts  --     1.0008                 0.9865                 5.1522
 IR Inten    --    22.4394                 3.0476                 3.6451

                    13                     14                     15
                    A'                     A'                     A'
 Frequencies --  1238.5105              1328.7120              1390.9853
 Red. masses --     1.3721                 3.5108                 3.2695
 Frc consts  --     1.2400                 3.6519                 3.7271
 IR Inten    --     0.3547                 5.8724                10.8589

                    16                     17                     18
                    A'                     A'                     A'
 Frequencies --  1457.3724              1505.9842              3169.1361
 Red. masses --     3.2797                 3.2656                 1.0916
 Frc consts  --     4.1042                 4.3637                 6.4595
 IR Inten    --    13.9568                 9.0972                 5.7257

                    19                     20                     21
                    A'                     A'                     A'
 Frequencies --  3173.0471              3200.9017              3561.5969
 Red. masses --     1.0961                 1.1036                 1.0809
 Frc consts  --     6.5020                 6.6620                 8.0782
 IR Inten    --     0.5638                 2.0319                35.1798

 - Thermochemistry -
 -------------------
 Temperature   298.150 Kelvin.  Pressure   1.00000 Atm.
 Atom  1 has atomic number  7 and mass  14.00307

 Molecular mass:    68.03745 amu.
 Principal axes and moments of inertia in atomic units:
                           1         2         3
     EIGENVALUES --   185.88167 193.46276 379.34443
           X            0.45887   0.88850   0.00000
           Y            0.88850  -0.45887   0.00000
           Z            0.00000   0.00000   1.00000
 This molecule is an asymmetric top.
 Rotational symmetry number  1.
 Rotational temperatures (Kelvin)      0.46596     0.44770     0.22833
 Rotational constants (GHZ):           9.70909     9.32862     4.75753
 Zero-point vibrational energy     181275.4 (Joules/Mol)
                                   43.32587 (Kcal/Mol)
 Warning -- explicit consideration of   1 degrees of freedom as
           vibrations may cause significant error
 Vibrational temperatures:    744.17   908.58   958.84  1007.45  1111.82
          (Kelvin)           1198.53  1256.21  1316.07  1506.66  1535.58
                             1600.01  1647.61  1781.94  1911.72  2001.32
                             2096.83  2166.77  4559.67  4565.30  4605.38
                             5124.34

 Zero-point correction=                           0.069044 (Hartree/Particle)
 Thermal correction to Energy=                    0.072885
 Thermal correction to Enthalpy=                  0.073829
 Thermal correction to Gibbs Free Energy=         0.042741
 Sum of electronic and zero-point Energies=           -225.957928
 Sum of electronic and thermal Energies=              -225.954088
 Sum of electronic and thermal Enthalpies=            -225.953144
 Sum of electronic and thermal Free Energies=         -225.984231

                     E (Thermal)             CV                S
                      KCal/Mol        Cal/Mol-Kelvin    Cal/Mol-Kelvin
 Total                   45.736             13.912             65.429
 Electronic               0.000              0.000              0.000
 Translational            0.889              2.981             38.570
 Rotational               0.889              2.981             24.126
 Vibrational             43.958              7.950              2.732
 Vibration  1             0.872              1.212              0.616

 Optimization completed.
    -- Stationary point found.
 Normal termination of Gaussian 03 at Fri Jun 18 12:47:58 2004.
