 Gaussian 03, Revision B.05,
 Gaussian 03:  SGI64-G03RevB.05  8-Nov-2003

 -----------------------
 #PBEPBE/6-31G* opt freq
 -----------------------

 ---------------------------------------
 1himidaz casno=288324 method=61 basis=1
 ---------------------------------------
 Symbolic Z-matrix:
 Charge =  0 Multiplicity = 1

 SCF Done:  E(RPBE-PBE) =  -225.939426645     A.U. after   15 cycles
 SCF Done:  E(RPBE-PBE) =  -225.943894771     A.U. after   13 cycles
 SCF Done:  E(RPBE-PBE) =  -225.943940454     A.U. after    9 cycles
 SCF Done:  E(RPBE-PBE) =  -225.943947876     A.U. after    9 cycles
 Optimization completed.
    -- Stationary point found.
 Normal termination of Gaussian 03 at Wed Feb 25 21:45:09 2004.

 -------------------------------------------------------------------
 #P Geom=AllCheck Guess=Read SCRF=Check GenChk RPBEPBE/6-31G(d) Freq
 -------------------------------------------------------------------

 1himidaz casno=288324 method=61 basis=1
 ---------------------------------------
 Redundant internal coordinates taken from checkpoint file:
 /wrk/rdj3/pbe/Gau-120301.chk
 Charge =  0 Multiplicity = 1

                         Standard orientation:
 ---------------------------------------------------------------------
 Center     Atomic     Atomic              Coordinates (Angstroms)
 Number     Number      Type              X           Y           Z
 ---------------------------------------------------------------------
    1          7             0       -0.745410   -0.995985    0.000000
    2          1             0       -0.007028    2.128097    0.000000
    3          6             0        1.125406    0.305156    0.000000
    4          1             0        2.130643    0.720717    0.000000
    5          6             0        0.637234   -0.987276    0.000000
    6          1             0        1.205585   -1.917380    0.000000
    7          1             0       -2.115031    0.667284    0.000000
    8          6             0       -1.095357    0.282095    0.000000
    9          7             0        0.000000    1.110475    0.000000
 ---------------------------------------------------------------------

 SCF Done:  E(RPBE-PBE) =  -225.943947876     A.U. after    1 cycles

 The electronic state is 1-A'.
 Alpha  occ. eigenvalues --  -14.06270 -13.97731  -9.94395  -9.92413  -9.90503
 Alpha  occ. eigenvalues --   -0.92015  -0.78429  -0.66405  -0.55198  -0.52416
 Alpha  occ. eigenvalues --   -0.49916  -0.38526  -0.38292  -0.37377  -0.35067
 Alpha  occ. eigenvalues --   -0.24034  -0.21436  -0.19340
 Alpha virt. eigenvalues --    0.00112   0.03885   0.04534   0.10528   0.12303
 Alpha virt. eigenvalues --    0.14303   0.18370   0.20276   0.27351   0.31779
 Alpha virt. eigenvalues --    0.40550   0.48690   0.50476   0.51383   0.55248

 Mulliken atomic charges:
              1
     1  N   -0.401485
     2  H    0.332195
     3  C    0.007692
     4  H    0.157835
     5  C   -0.052815
     6  H    0.142528
     7  H    0.160938
     8  C    0.181833
     9  N   -0.528720
 Sum of Mulliken charges=   0.00000

 Dipole moment (field-independent basis, Debye):
    X=     1.0899    Y=     3.5093    Z=     0.0000  Tot=     3.6746
 Quadrupole moment (field-independent basis, Debye-Ang):
   XX=   -26.1812   YY=   -24.9566   ZZ=   -31.1778
   XY=    -3.0197   XZ=     0.0000   YZ=     0.0000

  Exact polarizability:  49.291  -1.301  47.332   0.000   0.000  17.801
 Approx polarizability:  95.340   2.914  98.872   0.000   0.000  29.075

                     1                      2                      3
                    A"                     A"                     A"
 Frequencies --   496.6121               627.6791               666.3448
 Red. masses --     1.6092                 2.5719                 2.9159
 Frc consts  --     0.2338                 0.5970                 0.7628
 IR Inten    --    86.6017                16.8038                 2.1224

                     4                      5                      6
                    A"                     A"                     A"
 Frequencies --   679.4738               749.7048               812.1728
 Red. masses --     1.2089                 1.2997                 1.2802
 Frc consts  --     0.3289                 0.4304                 0.4975
 IR Inten    --    14.7492                41.0124                 9.5020

                     7                      8                      9
                    A'                     A'                     A'
 Frequencies --   869.9926               913.3303              1055.5964
 Red. masses --     5.2823                 4.5433                 1.5341
 Frc consts  --     2.3556                 2.2329                 1.0071
 IR Inten    --     9.1364                 1.7212                24.3314

                    10                     11                     12
                    A'                     A'                     A'
 Frequencies --  1080.7183              1124.9463              1156.3383
 Red. masses --     1.4763                 1.3619                 6.2604
 Frc consts  --     1.0159                 1.0154                 4.9320
 IR Inten    --    24.1690                 3.0183                 3.7950

                    13                     14                     15
                    A'                     A'                     A'
 Frequencies --  1247.8557              1347.3011              1413.3936
 Red. masses --     1.3488                 3.5058                 3.3849
 Frc consts  --     1.2374                 3.7494                 3.9840
 IR Inten    --     0.5681                 8.1213                12.3197

                    16                     17                     18
                    A'                     A'                     A'
 Frequencies --  1476.4211              1524.2329              3192.0382
 Red. masses --     3.4291                 3.2899                 1.0915
 Frc consts  --     4.4040                 4.5034                 6.5528
 IR Inten    --    16.4216                10.3640                 7.1440

                    19                     20                     21
                    A'                     A'                     A'
 Frequencies --  3199.1003              3224.7287              3557.0078
 Red. masses --     1.0958                 1.1032                 1.0808
 Frc consts  --     6.6078                 6.7590                 8.0572
 IR Inten    --     2.5135                 2.8073                28.9421

 - Thermochemistry -
 -------------------
 Temperature   298.150 Kelvin.  Pressure   1.00000 Atm.
 Atom  1 has atomic number  7 and mass  14.00307

 Molecular mass:    68.03745 amu.
 Principal axes and moments of inertia in atomic units:
                           1         2         3
     EIGENVALUES --   186.53913 195.23964 381.77877
           X            0.47091   0.88218   0.00000
           Y            0.88218  -0.47091   0.00000
           Z            0.00000   0.00000   1.00000
 This molecule is an asymmetric top.
 Rotational symmetry number  1.
 Rotational temperatures (Kelvin)      0.46432     0.44363     0.22687
 Rotational constants (GHZ):           9.67487     9.24372     4.72719
 Zero-point vibrational energy     181922.0 (Joules/Mol)
                                   43.48041 (Kcal/Mol)
 Warning -- explicit consideration of   1 degrees of freedom as
           vibrations may cause significant error
 Vibrational temperatures:    714.51   903.09   958.72   977.61  1078.66
          (Kelvin)           1168.53  1251.72  1314.08  1518.77  1554.91
                             1618.54  1663.71  1795.38  1938.46  2033.56
                             2124.24  2193.03  4592.63  4602.79  4639.66
                             5117.73

 Zero-point correction=                           0.069290 (Hartree/Particle)
 Thermal correction to Energy=                    0.073163
 Thermal correction to Enthalpy=                  0.074107
 Thermal correction to Gibbs Free Energy=         0.042962
 Sum of electronic and zero-point Energies=           -225.874657
 Sum of electronic and thermal Energies=              -225.870785
 Sum of electronic and thermal Enthalpies=            -225.869841
 Sum of electronic and thermal Free Energies=         -225.900986

                     E (Thermal)             CV                S
                      KCal/Mol        Cal/Mol-Kelvin    Cal/Mol-Kelvin
 Total                   45.911             14.015             65.551
 Electronic               0.000              0.000              0.000
 Translational            0.889              2.981             38.570
 Rotational               0.889              2.981             24.145
 Vibrational             44.133              8.053              2.836
 Vibration  1             0.852              1.258              0.667

 Optimization completed.
    -- Stationary point found.
 Normal termination of Gaussian 03 at Wed Feb 25 21:50:13 2004.
