 Gaussian 03, Revision C.02,
 Gaussian 03:  SGI64-G03RevC.02 12-Jun-2004

 --------------------
 #MP3/6-31G* opt freq
 --------------------

 --------------------------------------------------
 1H imidazole C3H4N2 casno=288324 method=62 basis=1
 --------------------------------------------------
 Symbolic Z-matrix:
 Charge =  0 Multiplicity = 1

 SCF Done:  E(RHF) =  -224.763306438     A.U. after   13 cycles
 SCF Done:  E(RHF) =  -224.808784473     A.U. after   13 cycles
 SCF Done:  E(RHF) =  -224.811367716     A.U. after   13 cycles
 SCF Done:  E(RHF) =  -224.811919014     A.U. after   10 cycles
 SCF Done:  E(RHF) =  -224.812240187     A.U. after   11 cycles
 SCF Done:  E(RHF) =  -224.812358283     A.U. after    9 cycles
 Optimization completed.
    -- Stationary point found.
 Normal termination of Gaussian 03 at Fri Jan  7 18:33:39 2005.

 --------------------------------------------------------------------
 #N Geom=AllCheck Guess=Read SCRF=Check GenChk RMP3(FC)/6-31G(d) Freq
 --------------------------------------------------------------------

 1H imidazole C3H4N2 casno=288324 method=62 basis=1
 --------------------------------------------------
 Redundant internal coordinates taken from checkpoint file:
 /chkpnt/Gau-724459.chk
 Charge =  0 Multiplicity = 1

                         Standard orientation:
 ---------------------------------------------------------------------
 Center     Atomic     Atomic              Coordinates (Angstroms)
 Number     Number      Type              X           Y           Z
 ---------------------------------------------------------------------
    1          7             0       -0.744592   -0.986486    0.000000
    2          1             0       -0.012184    2.112467    0.000000
    3          6             0        1.119412    0.300050    0.000000
    4          1             0        2.120168    0.703525    0.000000
    5          6             0        0.636292   -0.981672    0.000000
    6          1             0        1.198967   -1.904290    0.000000
    7          1             0       -2.100807    0.660331    0.000000
    8          6             0       -1.088038    0.281737    0.000000
    9          7             0        0.000000    1.104668    0.000000
 ---------------------------------------------------------------------

 SCF Done:  E(RHF) =  -224.812358283     A.U. after    1 cycles
 SCF Done:  E(RHF) =  -224.812365640     A.U. after    8 cycles
 SCF Done:  E(RHF) =  -224.812349102     A.U. after    8 cycles
 SCF Done:  E(RHF) =  -224.812416115     A.U. after    9 cycles
 SCF Done:  E(RHF) =  -224.812384100     A.U. after    9 cycles
 SCF Done:  E(RHF) =  -224.812329174     A.U. after    9 cycles
 SCF Done:  E(RHF) =  -224.812326638     A.U. after    9 cycles
 SCF Done:  E(RHF) =  -224.812387253     A.U. after    9 cycles
 SCF Done:  E(RHF) =  -224.812357948     A.U. after    7 cycles
 SCF Done:  E(RHF) =  -224.812343871     A.U. after    8 cycles
 SCF Done:  E(RHF) =  -224.812370268     A.U. after    8 cycles
 SCF Done:  E(RHF) =  -224.812353936     A.U. after    8 cycles
 SCF Done:  E(RHF) =  -224.812358868     A.U. after    8 cycles
 SCF Done:  E(RHF) =  -224.812358099     A.U. after    7 cycles

 Alpha  occ. eigenvalues --  -15.62454 -15.54316 -11.29405 -11.25988 -11.23943
 Alpha  occ. eigenvalues --   -1.33480  -1.16007  -1.00188  -0.82300  -0.79325
 Alpha  occ. eigenvalues --   -0.75313  -0.60320  -0.59765  -0.59070  -0.56295
 Alpha  occ. eigenvalues --   -0.42970  -0.39117  -0.31526
 Alpha virt. eigenvalues --    0.18977   0.21723   0.24377   0.28114   0.29678
 Alpha virt. eigenvalues --    0.31742   0.39559   0.41234   0.48800   0.51548
 Alpha virt. eigenvalues --    0.67622   0.71621   0.76837   0.80141   0.80973

 Mulliken atomic charges:
              1
     1  N   -0.437498
     2  H    0.379681
     3  C   -0.013970
     4  H    0.196763
     5  C   -0.067576
     6  H    0.177669
     7  H    0.191241
     8  C    0.191668
     9  N   -0.617978
 Sum of Mulliken charges=   0.00000

 Dipole moment (field-independent basis, Debye):
    X=     1.2058    Y=     3.6857    Z=    -0.0016  Tot=     3.8779
 Quadrupole moment (field-independent basis, Debye-Ang):
   XX=   -26.2459   YY=   -25.4093   ZZ=   -31.5743
   XY=    -3.3485   XZ=    -0.0001   YZ=    -0.0031

                     1                      2                      3
                    A"                     A"                     A"
 Frequencies --   494.0724               641.0707               685.6352
 Red. masses --     1.6480                 2.8078                 2.7399
 Frc consts  --     0.2370                 0.6799                 0.7589
 IR Inten    --   106.9236                22.8075                 5.1920

                     4                      5                      6
                    A"                     A"                     A"
 Frequencies --   715.2077               813.6616               836.8294
 Red. masses --     1.2057                 1.2996                 1.2423
 Frc consts  --     0.3634                 0.5069                 0.5126
 IR Inten    --    26.1591                39.5523                 7.5721

                     7                      8                      9
                    A'                     A'                     A'
 Frequencies --   924.2493               960.8941              1113.3862
 Red. masses --     5.5877                 4.7593                 1.5459
 Frc consts  --     2.8123                 2.5891                 1.1291
 IR Inten    --     7.0696                 1.8203                37.9675

                    10                     11                     12
                    A'                     A'                     A'
 Frequencies --  1138.9635              1190.6790              1195.8803
 Red. masses --     1.4522                 1.6358                 3.4287
 Frc consts  --     1.1100                 1.3664                 2.8891
 IR Inten    --    15.8898                 0.5810                 8.2600

                    13                     14                     15
                    A'                     A'                     A'
 Frequencies --  1322.2100              1420.3281              1509.7002
 Red. masses --     1.3865                 3.1534                 3.1514
 Frc consts  --     1.4281                 3.7481                 4.2319
 IR Inten    --     0.8336                 9.6260                23.9983

                    16                     17                     18
                    A'                     A'                     A'
 Frequencies --  1570.0599              1622.9881              3314.6777
 Red. masses --     3.3536                 3.6401                 1.0925
 Frc consts  --     4.8707                 5.6493                 7.0720
 IR Inten    --    22.9241                12.6688                 5.4782

                    19                     20                     21
                    A'                     A'                     A'
 Frequencies --  3317.8123              3343.5575              3728.1029
 Red. masses --     1.0976                 1.1059                 1.0820
 Frc consts  --     7.1186                 7.2840                 8.8608
 IR Inten    --     0.9960                 1.6230                74.0244

 - Thermochemistry -
 -------------------
 Temperature   298.150 Kelvin.  Pressure   1.00000 Atm.
 Atom  1 has atomic number  7 and mass  14.00307

 Molecular mass:    68.03745 amu.
 Principal axes and moments of inertia in atomic units:
                           1         2         3
     EIGENVALUES --   184.87824 192.36031 377.23855
           X            0.48836   0.87264   0.00000
           Y            0.87264  -0.48836   0.00000
           Z            0.00000   0.00000   1.00000
 This molecule is an asymmetric top.
 Rotational symmetry number  1.
 Rotational temperatures (Kelvin)      0.46849     0.45027     0.22960
 Rotational constants (GHZ):           9.76178     9.38209     4.78408
 Zero-point vibrational energy     190564.9 (Joules/Mol)
                                   45.54611 (Kcal/Mol)
 Warning -- explicit consideration of   1 degrees of freedom as
           vibrations may cause significant error
 Vibrational temperatures:    710.86   922.36   986.47  1029.02  1170.68
          (Kelvin)           1204.01  1329.79  1382.51  1601.91  1638.71
                             1713.12  1720.60  1902.36  2043.53  2172.12
                             2258.96  2335.12  4769.08  4773.59  4810.63
                             5363.90

 Zero-point correction=                           0.072582 (Hartree/Particle)
 Thermal correction to Energy=                    0.076350
 Thermal correction to Enthalpy=                  0.077294
 Thermal correction to Gibbs Free Energy=         0.046303
 Sum of electronic and zero-point Energies=           -225.460497
 Sum of electronic and thermal Energies=              -225.456729
 Sum of electronic and thermal Enthalpies=            -225.455785
 Sum of electronic and thermal Free Energies=         -225.486776

                     E (Thermal)             CV                S
                      KCal/Mol        Cal/Mol-Kelvin    Cal/Mol-Kelvin
 Total                   47.911             13.290             65.227
 Electronic               0.000              0.000              0.000
 Translational            0.889              2.981             38.570
 Rotational               0.889              2.981             24.110
 Vibrational             46.133              7.328              2.547
 Vibration  1             0.850              1.263              0.673

 Optimization completed.
    -- Stationary point found.
 Normal termination of Gaussian 03 at Sat Jan  8 09:20:50 2005.
