 Gaussian 09, Revision B.01,
 Gaussian 09:  EM64L-G09RevB.01 12-Aug-2010

 ------------------------
 #MP3/6-31G(d,p) opt freq
 ------------------------

 ---------------------------------------------------------------------
 1himidaz 1H-Imidazole casno=288324 state=1 config=1 method=62 basis=4
 ---------------------------------------------------------------------
 Symbolic Z-matrix:
 Charge =  0 Multiplicity = 1

 SCF Done:  E(RHF) =  -224.824297242     A.U. after   13 cycles
 E2 =    -0.7255605184D+00 EUMP2 =    -0.22554985775994D+03
 SCF Done:  E(RHF) =  -224.822448235     A.U. after   11 cycles
 E2 =    -0.7298098334D+00 EUMP2 =    -0.22555225806876D+03
 SCF Done:  E(RHF) =  -224.822604066     A.U. after   10 cycles
 E2 =    -0.7296739769D+00 EUMP2 =    -0.22555227804311D+03
 SCF Done:  E(RHF) =  -224.822611584     A.U. after    9 cycles
 E2 =    -0.7296861414D+00 EUMP2 =    -0.22555229772511D+03
 Optimization completed.
    -- Stationary point found.
 Normal termination of Gaussian 09 at Thu Sep  6 13:45:39 2012.

 ----------------------------------------------------------------------
 #N Geom=AllCheck Guess=TCheck SCRF=Check GenChk RMP3(FC)/6-31G(d,p) Fr
 eq
 ----------------------------------------------------------------------

 1himidaz 1H-Imidazole casno=288324 state=1 config=1 method=62 basis=4
 ---------------------------------------------------------------------
 Redundant internal coordinates taken from checkpoint file:
 /tmp/rdj3/g09-26718/Gau-26762.chk
 Charge =  0 Multiplicity = 1

                         Standard orientation:
 ---------------------------------------------------------------------
 Center     Atomic      Atomic             Coordinates (Angstroms)
 Number     Number       Type             X           Y           Z
 ---------------------------------------------------------------------
      1          7           0       -0.744471   -0.986755    0.000000
      2          1           0       -0.013136    2.106206    0.000000
      3          6           0        1.118581    0.300596    0.000000
      4          1           0        2.113976    0.701647    0.000000
      5          6           0        0.636369   -0.981093    0.000000
      6          1           0        1.198565   -1.896944    0.000000
      7          1           0       -2.093577    0.660520    0.000000
      8          6           0       -1.087373    0.281182    0.000000
      9          7           0        0.000000    1.104536    0.000000
 ---------------------------------------------------------------------

 SCF Done:  E(RHF) =  -224.822611584     A.U. after    1 cycles
 E2 =    -0.7296861399D+00 EUMP2 =    -0.22555229772353D+03
 SCF Done:  E(RHF) =  -224.822619410     A.U. after    8 cycles
 E2 =    -0.7296863786D+00 EUMP2 =    -0.22555230578879D+03
 SCF Done:  E(RHF) =  -224.822601932     A.U. after    9 cycles
 E2 =    -0.7296859841D+00 EUMP2 =    -0.22555228791614D+03
 SCF Done:  E(RHF) =  -224.822669166     A.U. after    9 cycles
 E2 =    -0.7296073570D+00 EUMP2 =    -0.22555227652301D+03
 SCF Done:  E(RHF) =  -224.822551668     A.U. after   10 cycles
 E2 =    -0.7297650081D+00 EUMP2 =    -0.22555231667580D+03
 SCF Done:  E(RHF) =  -224.822611346     A.U. after    7 cycles
 E2 =    -0.7296861968D+00 EUMP2 =    -0.22555229754329D+03
 E2 =    -0.7296875439D+00 EUMP2 =    -0.22555229814636D+03
 E2 =    -0.7296847695D+00 EUMP2 =    -0.22555229707281D+03
 E2 =    -0.7297131270D+00 EUMP2 =    -0.22555230534781D+03
 E2 =    -0.7296591397D+00 EUMP2 =    -0.22555228824252D+03
 E2 =    -0.7296861480D+00 EUMP2 =    -0.22555229770179D+03
 E2 =    -0.7297108853D+00 EUMP2 =    -0.22555229787723D+03
 E2 =    -0.7296615074D+00 EUMP2 =    -0.22555229449780D+03
 E2 =    -0.7297246277D+00 EUMP2 =    -0.22555230872974D+03
 E2 =    -0.7296477220D+00 EUMP2 =    -0.22555228415985D+03
 E2 =    -0.7296862316D+00 EUMP2 =    -0.22555229755652D+03
 E2 =    -0.7296911628D+00 EUMP2 =    -0.22555229888517D+03
 E2 =    -0.7296811364D+00 EUMP2 =    -0.22555229602385D+03
 E2 =    -0.7296778491D+00 EUMP2 =    -0.22555229483015D+03
 E2 =    -0.7296944477D+00 EUMP2 =    -0.22555229952263D+03
 E2 =    -0.7296861506D+00 EUMP2 =    -0.22555229768036D+03
 E2 =    -0.7296768347D+00 EUMP2 =    -0.22555229427552D+03
 E2 =    -0.7296954621D+00 EUMP2 =    -0.22555229989464D+03
 E2 =    -0.7296910996D+00 EUMP2 =    -0.22555229917999D+03
 E2 =    -0.7296811937D+00 EUMP2 =    -0.22555229589336D+03
 E2 =    -0.7296861532D+00 EUMP2 =    -0.22555229768451D+03
 SCF Done:  E(RHF) =  -224.822644231     A.U. after    9 cycles
 E2 =    -0.7296440954D+00 EUMP2 =    -0.22555228832606D+03
 SCF Done:  E(RHF) =  -224.822575618     A.U. after    9 cycles
 E2 =    -0.7297283517D+00 EUMP2 =    -0.22555230396968D+03
 SCF Done:  E(RHF) =  -224.822578336     A.U. after    9 cycles
 E2 =    -0.7297337526D+00 EUMP2 =    -0.22555231208812D+03
 SCF Done:  E(RHF) =  -224.822642149     A.U. after   10 cycles
 E2 =    -0.7296385206D+00 EUMP2 =    -0.22555228066934D+03
 SCF Done:  E(RHF) =  -224.822611249     A.U. after    7 cycles
 E2 =    -0.7296862556D+00 EUMP2 =    -0.22555229750504D+03
 SCF Done:  E(RHF) =  -224.822597033     A.U. after    8 cycles
 E2 =    -0.7297046648D+00 EUMP2 =    -0.22555230169823D+03
 SCF Done:  E(RHF) =  -224.822623702     A.U. after    8 cycles
 E2 =    -0.7296676549D+00 EUMP2 =    -0.22555229135704D+03
 SCF Done:  E(RHF) =  -224.822599388     A.U. after    8 cycles
 E2 =    -0.7296879246D+00 EUMP2 =    -0.22555228731285D+03
 SCF Done:  E(RHF) =  -224.822619952     A.U. after    9 cycles
 E2 =    -0.7296845060D+00 EUMP2 =    -0.22555230445797D+03
 SCF Done:  E(RHF) =  -224.822611399     A.U. after    7 cycles
 E2 =    -0.7296861901D+00 EUMP2 =    -0.22555229758899D+03

 Alpha  occ. eigenvalues --  -15.62353 -15.54315 -11.29314 -11.25888 -11.23864
 Alpha  occ. eigenvalues --   -1.33486  -1.16057  -1.00237  -0.82388  -0.79397
 Alpha  occ. eigenvalues --   -0.75424  -0.60306  -0.59767  -0.59077  -0.56329
 Alpha  occ. eigenvalues --   -0.42962  -0.39129  -0.31525
 Alpha virt. eigenvalues --    0.18861   0.21902   0.24284   0.28278   0.29776
 Alpha virt. eigenvalues --    0.31832   0.39520   0.41208   0.48639   0.51526
 Alpha virt. eigenvalues --    0.67562   0.71316   0.76829   0.79573   0.80981

 Mulliken atomic charges:
              1
     1  N   -0.449671
     2  H    0.301225
     3  C    0.040744
     4  H    0.144290
     5  C   -0.006896
     6  H    0.124228
     7  H    0.139249
     8  C    0.253862
     9  N   -0.547031
 Sum of Mulliken atomic charges =   0.00000

 Dipole moment (field-independent basis, Debye):
    X=              1.1799    Y=              3.6396    Z=             -0.0015  Tot=              3.8261
 Quadrupole moment (field-independent basis, Debye-Ang):
   XX=            -26.4447   YY=            -25.5971   ZZ=            -31.4435
   XY=             -3.2908   XZ=             -0.0001   YZ=             -0.0030

                     1                      2                      3
                    A"                     A"                     A"
 Frequencies --   503.6530               641.1697               685.8227
 Red. masses --     1.6853                 2.7496                 2.8589
 Frc consts  --     0.2519                 0.6660                 0.7923
 IR Inten    --    99.8693                23.7311                 2.0104

                     4                      5                      6
                    A"                     A"                     A"
 Frequencies --   728.9442               824.7193               852.8679
 Red. masses --     1.1981                 1.2756                 1.2380
 Frc consts  --     0.3751                 0.5112                 0.5305
 IR Inten    --    26.5368                33.6954                 5.8619

                     7                      8                      9
                    A'                     A'                     A'
 Frequencies --   923.0208               959.8060              1115.3637
 Red. masses --     5.6137                 4.8161                 1.5633
 Frc consts  --     2.8179                 2.6140                 1.1458
 IR Inten    --     6.6148                 1.6095                35.2045

                    10                     11                     12
                    A'                     A'                     A'
 Frequencies --  1140.4950              1190.8798              1196.6757
 Red. masses --     1.4744                 1.6850                 3.2840
 Frc consts  --     1.1299                 1.4079                 2.7708
 IR Inten    --    14.0316                 0.6550                 8.2793

                    13                     14                     15
                    A'                     A'                     A'
 Frequencies --  1330.0147              1426.6190              1521.6269
 Red. masses --     1.4208                 3.0000                 3.1209
 Frc consts  --     1.4808                 3.5973                 4.2574
 IR Inten    --     0.8972                 9.0373                22.5687

                    16                     17                     18
                    A'                     A'                     A'
 Frequencies --  1579.8573              1630.9781              3357.0016
 Red. masses --     3.2326                 3.4888                 1.0926
 Frc consts  --     4.7538                 5.4679                 7.2544
 IR Inten    --    25.1896                11.8664                 7.1130

                    19                     20                     21
                    A'                     A'                     A'
 Frequencies --  3359.2374              3387.3912              3807.4661
 Red. masses --     1.0965                 1.1053                 1.0818
 Frc consts  --     7.2899                 7.4721                 9.2399
 IR Inten    --     0.2257                 1.9882                74.9188

 - Thermochemistry -
 -------------------
 Temperature   298.150 Kelvin.  Pressure   1.00000 Atm.
 Atom     1 has atomic number  7 and mass  14.00307

 Molecular mass:    68.03745 amu.
 Principal axes and moments of inertia in atomic units:
                           1         2         3
     Eigenvalues --   184.48435 192.16082 376.64517
           X            0.48759   0.87307   0.00000
           Y            0.87307  -0.48759   0.00000
           Z            0.00000   0.00000   1.00000
 This molecule is an asymmetric top.
 Rotational symmetry number  1.
 Rotational temperatures (Kelvin)      0.46949     0.45074     0.22996
 Rotational constants (GHZ):           9.78262     9.39183     4.79162
 Zero-point vibrational energy     192381.1 (Joules/Mol)
                                   45.98019 (Kcal/Mol)
 Warning -- explicit consideration of   1 degrees of freedom as
           vibrations may cause significant error
 Vibrational temperatures:    724.64   922.50   986.74  1048.79  1186.59
          (Kelvin)           1227.09  1328.02  1380.94  1604.76  1640.92
                             1713.41  1721.75  1913.59  2052.58  2189.28
                             2273.06  2346.61  4829.97  4833.19  4873.69
                             5478.09

 Zero-point correction=                           0.073274 (Hartree/Particle)
 Thermal correction to Energy=                    0.077022
 Thermal correction to Enthalpy=                  0.077966
 Thermal correction to Gibbs Free Energy=         0.047006
 Sum of electronic and zero-point Energies=           -225.494870
 Sum of electronic and thermal Energies=              -225.491122
 Sum of electronic and thermal Enthalpies=            -225.490178
 Sum of electronic and thermal Free Energies=         -225.521138

                     E (Thermal)             CV                S
                      KCal/Mol        Cal/Mol-Kelvin    Cal/Mol-Kelvin
 Total                   48.332             13.188             65.161
 Electronic               0.000              0.000              0.000
 Translational            0.889              2.981             38.570
 Rotational               0.889              2.981             24.105
 Vibrational             46.554              7.226              2.486
 Vibration     1          0.859              1.242              0.649

 Optimization completed.
    -- Stationary point found.
 Normal termination of Gaussian 09 at Thu Sep  6 14:22:54 2012.
