 Gaussian 09, Revision A.02,
 Gaussian 09:  AM64L-G09RevA.02 11-Jun-2009

 ------
 #G3MP2
 ------

 ---------------------------------------------------------------------
 1himidaz 1H-Imidazole casno=288324 state=1 config=1 method=67 basis=0
 ---------------------------------------------------------------------
 Symbolic Z-matrix:
 Charge =  0 Multiplicity = 1

 SCF Done:  E(RHF) =  -224.814429221     A.U. after   13 cycles
 Optimization completed.
    -- Stationary point found.
 Normal termination of Gaussian 09 at Thu Jul  8 15:16:51 2010.

 -------------------------------------------------------
 #N Geom=AllCheck Guess=TCheck SCRF=Check HF/GTBas1 Freq
 -------------------------------------------------------

 1himidaz 1H-Imidazole casno=288324 state=1 config=1 method=67 basis=0
 ---------------------------------------------------------------------
 Redundant internal coordinates taken from checkpoint file:
 /gaussian/Gau-26631.chk
 Charge =  0 Multiplicity = 1

 SCF Done:  E(RHF) =  -224.814429221     A.U. after    1 cycles

  Exact polarizability:  43.713  -0.796  43.639   0.000   0.000  17.186
 Approx polarizability:  40.767   0.578  43.812   0.000   0.000  19.067

                     1                      2                      3
                    A"                     A"                     A"
 Frequencies --   535.0494               692.9982               733.4452
 Red. masses --     1.4457                 2.2968                 2.9239
 Frc consts  --     0.2438                 0.6499                 0.9267
 IR Inten    --   145.3947                 7.2478                11.6123
 Raman Activ --     1.2442                 0.8806                 0.3939

                     4                      5                      6
                    A"                     A"                     A'
 Frequencies --   838.9924               965.1288               984.7552
 Red. masses --     1.2393                 1.3893                 5.6007
 Frc consts  --     0.5140                 0.7625                 3.2000
 IR Inten    --    45.6340                15.9304                 7.5933
 Raman Activ --     1.2195                 0.0375                 2.1579

                     7                      8                      9
                    A"                     A'                     A'
 Frequencies --   999.2452              1021.6508              1157.8247
 Red. masses --     1.3586                 4.7391                 1.7019
 Frc consts  --     0.7992                 2.9144                 1.3442
 IR Inten    --     0.2619                 1.7105                55.9524
 Raman Activ --     1.4207                 1.8617                 2.3152

                    10                     11                     12
                    A'                     A'                     A'
 Frequencies --  1191.4984              1234.8369              1257.9344
 Red. masses --     1.5988                 3.4683                 1.5615
 Frc consts  --     1.3373                 3.1159                 1.4558
 IR Inten    --    13.2647                 4.5122                 4.9183
 Raman Activ --     1.5868                10.4749                19.9629

                    13                     14                     15
                    A'                     A'                     A'
 Frequencies --  1411.4757              1505.2713              1587.4187
 Red. masses --     1.3645                 3.2357                 2.5482
 Frc consts  --     1.6016                 4.3197                 3.7832
 IR Inten    --     0.5668                10.5468                26.5550
 Raman Activ --     6.8759                22.7383                11.5400

                    16                     17                     18
                    A'                     A'                     A'
 Frequencies --  1665.4505              1744.6248              3443.7288
 Red. masses --     3.1740                 3.5999                 1.0935
 Frc consts  --     5.1870                 6.4558                 7.6408
 IR Inten    --    26.9811                26.6677                13.2163
 Raman Activ --    17.4178                 1.2129                46.0213

                    19                     20                     21
                    A'                     A'                     A'
 Frequencies --  3445.9579              3474.5502              3921.3331
 Red. masses --     1.0978                 1.1071                 1.0827
 Frc consts  --     7.6805                 7.8748                 9.8091
 IR Inten    --     1.2890                 4.2196                89.6247
 Raman Activ --    91.3383               100.4255                78.3327

 - Thermochemistry -
 -------------------
 Temperature   298.150 Kelvin.  Pressure   1.00000 Atm.
 Atom     1 has atomic number  7 and mass  14.00307

 Molecular mass:    68.03745 amu.
 Principal axes and moments of inertia in atomic units:
                           1         2         3
     Eigenvalues --   181.78260 187.22030 369.00289
           X            0.50547   0.86284   0.00000
           Y            0.86284  -0.50547   0.00000
           Z            0.00000   0.00000   1.00000
 This molecule is an asymmetric top.
 Rotational symmetry number  1.
 Rotational temperatures (Kelvin)      0.47647     0.46263     0.23472
 Rotational constants (GHZ):           9.92802     9.63967     4.89086
 Zero-point vibrational energy     202247.7 (Joules/Mol)
                                   48.33835 (Kcal/Mol)
 Warning -- explicit consideration of   1 degrees of freedom as
           vibrations may cause significant error
 Vibrational temperatures:    769.82   997.07  1055.26  1207.12  1388.60
          (Kelvin)           1416.84  1437.69  1469.93  1665.85  1714.30
                             1776.65  1809.88  2030.80  2165.75  2283.94
                             2396.21  2510.12  4954.75  4957.96  4999.10
                             5641.92

 Zero-point correction=                           0.077032 (Hartree/Particle)
 Thermal correction to Energy=                    0.080584
 Thermal correction to Enthalpy=                  0.081528
 Thermal correction to Gibbs Free Energy=         0.050861
 Sum of electronic and zero-point Energies=           -224.737397
 Sum of electronic and thermal Energies=              -224.733845
 Sum of electronic and thermal Enthalpies=            -224.732901
 Sum of electronic and thermal Free Energies=         -224.763569

                     E (Thermal)             CV                S
                      KCal/Mol        Cal/Mol-Kelvin    Cal/Mol-Kelvin
 Total                   50.567             11.976             64.545
 Electronic               0.000              0.000              0.000
 Translational            0.889              2.981             38.570
 Rotational               0.889              2.981             24.044
 Vibrational             48.790              6.014              1.931
 Vibration     1          0.890              1.172              0.576

 Optimization completed.
    -- Stationary point found.
 Normal termination of Gaussian 09 at Thu Jul  8 15:17:12 2010.

 ------------------------------------------------------------------
 #N Geom=AllCheck Guess=TCheck SCRF=Check MP2(Full)/GTBas1 Opt=RCFC
 ------------------------------------------------------------------

 1himidaz 1H-Imidazole casno=288324 state=1 config=1 method=67 basis=0
 ---------------------------------------------------------------------
 Redundant internal coordinates taken from checkpoint file:
 /gaussian/Gau-26631.chk
 Charge =  0 Multiplicity = 1

 SCF Done:  E(RHF) =  -224.814429221     A.U. after    1 cycles
 E2 =    -0.7239743004D+00 EUMP2 =    -0.22553840352176D+03
 SCF Done:  E(RHF) =  -224.812047347     A.U. after   11 cycles
 E2 =    -0.7290871862D+00 EUMP2 =    -0.22554113453358D+03
 SCF Done:  E(RHF) =  -224.811392935     A.U. after   10 cycles
 E2 =    -0.7297798005D+00 EUMP2 =    -0.22554117273507D+03
 Optimization completed.
    -- Stationary point found.
 Normal termination of Gaussian 09 at Thu Jul  8 15:17:47 2010.

 --------------------------------------------------------------
 #N Geom=AllCheck Guess=TCheck SCRF=Check QCISD(T,FrzG3)/GTBas1
 --------------------------------------------------------------

 1himidaz 1H-Imidazole casno=288324 state=1 config=1 method=67 basis=0
 ---------------------------------------------------------------------
 Redundant internal coordinates taken from checkpoint file:
 /gaussian/Gau-26631.chk
 Charge =  0 Multiplicity = 1

 SCF Done:  E(RHF) =  -224.811392935     A.U. after    1 cycles
 E2 =    -0.7078054446D+00 EUMP2 =    -0.22551919837914D+03
 Normal termination of Gaussian 09 at Thu Jul  8 15:19:58 2010.

 -------------------------------------------------------------
 #N Geom=AllCheck Guess=TCheck SCRF=Check MP2=FrzG3/GTMP2Large
 -------------------------------------------------------------

 1himidaz 1H-Imidazole casno=288324 state=1 config=1 method=67 basis=0
 ---------------------------------------------------------------------
 Redundant internal coordinates taken from checkpoint file:
 /gaussian/Gau-26631.chk
 Charge =  0 Multiplicity = 1

                         Standard orientation:
 ---------------------------------------------------------------------
 Center     Atomic      Atomic             Coordinates (Angstroms)
 Number     Number       Type             X           Y           Z
 ---------------------------------------------------------------------
      1          7           0       -0.740498   -0.992635    0.000000
      2          1           0       -0.009941    2.115411    0.000000
      3          6           0        1.118848    0.305442    0.000000
      4          1           0        2.118448    0.713771    0.000000
      5          6           0        0.634796   -0.982963    0.000000
      6          1           0        1.201517   -1.903972    0.000000
      7          1           0       -2.103639    0.663370    0.000000
      8          6           0       -1.090794    0.283560    0.000000
      9          7           0        0.000000    1.103375    0.000000
 ---------------------------------------------------------------------

 SCF Done:  E(RHF) =  -224.888623756     A.U. after   12 cycles
 E2 =    -0.8748516461D+00 EUMP2 =    -0.22576347540233D+03

 The electronic state is 1-A'.
 Alpha  occ. eigenvalues --  -15.62453 -15.54675 -11.29854 -11.26210 -11.24433
 Alpha  occ. eigenvalues --   -1.34105  -1.16717  -1.00642  -0.82949  -0.79991
 Alpha  occ. eigenvalues --   -0.75829  -0.60911  -0.60377  -0.59908  -0.56970
 Alpha  occ. eigenvalues --   -0.43925  -0.40161  -0.32029
 Alpha virt. eigenvalues --    0.03205   0.04703   0.05905   0.07271   0.09842
 Alpha virt. eigenvalues --    0.11059   0.12583   0.13318   0.14961   0.14991
 Alpha virt. eigenvalues --    0.15219   0.17685   0.18162   0.18376   0.19766

 Mulliken atomic charges:
              1
     1  N   -0.418299
     2  H    0.196990
     3  C   -0.187856
     4  H    0.125349
     5  C    0.014696
     6  H    0.138412
     7  H    0.180735
     8  C    0.129260
     9  N   -0.179287
 Sum of Mulliken atomic charges =   0.00000

 Dipole moment (field-independent basis, Debye):
    X=              1.0646    Y=              3.7707    Z=              0.0000  Tot=              3.9182
 Quadrupole moment (field-independent basis, Debye-Ang):
   XX=            -26.6662   YY=            -25.9069   ZZ=            -32.8147
   XY=             -3.6108   XZ=              0.0000   YZ=              0.0000

 Normal termination of Gaussian 09 at Thu Jul  8 15:23:59 2010.
