 Gaussian 09, Revision B.01,
 Gaussian 09:  EM64L-G09RevB.01 12-Aug-2010

 ----------------------------------------------------
 #B3LYP/aug-cc-pVTZ opt freq integral(grid=ultrafine)
 ----------------------------------------------------

 ---------------------------------------------------------------------
 1himidaz 1H-Imidazole casno=288324 state=1 config=1 method=2 basis=20
 ---------------------------------------------------------------------
 Symbolic Z-matrix:
 Charge =  0 Multiplicity = 1

 SCF Done:  E(RB3LYP) =  -226.304127718     A.U. after   12 cycles
 SCF Done:  E(RB3LYP) =  -226.305274121     A.U. after   10 cycles
 SCF Done:  E(RB3LYP) =  -226.305300965     A.U. after    8 cycles
 SCF Done:  E(RB3LYP) =  -226.305306211     A.U. after    7 cycles
 Optimization completed.
    -- Stationary point found.
 Normal termination of Gaussian 09 at Thu Mar  8 14:02:43 2012.

 ----------------------------------------------------------------------
 #N Geom=AllCheck Guess=TCheck SCRF=Check GenChk RB3LYP/Aug-CC-pVTZ Fre
 q
 ----------------------------------------------------------------------

 1himidaz 1H-Imidazole casno=288324 state=1 config=1 method=2 basis=20
 ---------------------------------------------------------------------
 Redundant internal coordinates taken from checkpoint file:
 /tmp/rdj3/g09-29159/Gau-29203.chk
 Charge =  0 Multiplicity = 1

                         Standard orientation:
 ---------------------------------------------------------------------
 Center     Atomic      Atomic             Coordinates (Angstroms)
 Number     Number       Type             X           Y           Z
 ---------------------------------------------------------------------
      1          7           0       -0.740033   -0.980039    0.000000
      2          1           0       -0.008551    2.106508    0.000000
      3          6           0        1.116491    0.296967    0.000000
      4          1           0        2.113471    0.698224    0.000000
      5          6           0        0.635541   -0.982385    0.000000
      6          1           0        1.196194   -1.901125    0.000000
      7          1           0       -2.097476    0.661587    0.000000
      8          6           0       -1.089266    0.282430    0.000000
      9          7           0        0.000000    1.101858    0.000000
 ---------------------------------------------------------------------

 SCF Done:  E(RB3LYP) =  -226.305306211     A.U. after    1 cycles

 The electronic state is 1-A'.
 Alpha  occ. eigenvalues --  -14.38223 -14.30222 -10.23087 -10.20709 -10.18907
 Alpha  occ. eigenvalues --   -1.02293  -0.87770  -0.75093  -0.62316  -0.59773
 Alpha  occ. eigenvalues --   -0.57002  -0.44908  -0.44517  -0.44077  -0.41500
 Alpha  occ. eigenvalues --   -0.29289  -0.27801  -0.24098
 Alpha virt. eigenvalues --   -0.02090   0.00479   0.00668   0.01160   0.02726
 Alpha virt. eigenvalues --    0.03465   0.04367   0.04572   0.05626   0.06383
 Alpha virt. eigenvalues --    0.07367   0.07692   0.08294   0.08522   0.08616

 Mulliken atomic charges:
              1
     1  N   -0.438036
     2  H    0.060247
     3  C   -0.433832
     4  H    0.450097
     5  C   -0.202460
     6  H    0.472190
     7  H    0.503269
     8  C   -0.473788
     9  N    0.062312
 Sum of Mulliken atomic charges =   0.00000

 Dipole moment (field-independent basis, Debye):
    X=              1.1439    Y=              3.5354    Z=              0.0000  Tot=              3.7159
 Quadrupole moment (field-independent basis, Debye-Ang):
   XX=            -27.1603   YY=            -26.2405   ZZ=            -32.0903
   XY=             -3.3701   XZ=              0.0000   YZ=              0.0000

  Exact polarizability:  58.146  -0.493  55.643   0.000   0.000  34.102
 Approx polarizability:  89.431   1.042  90.364   0.000   0.000  49.170

                     1                      2                      3
                    A"                     A"                     A"
 Frequencies --   539.7410               646.7213               683.0114
 Red. masses --     1.5018                 2.1720                 2.8557
 Frc consts  --     0.2578                 0.5352                 0.7849
 IR Inten    --    91.5151                 9.1586                 5.0137

                     4                      5                      6
                    A"                     A"                     A"
 Frequencies --   742.9025               826.9775               884.7336
 Red. masses --     1.2397                 1.3973                 1.3636
 Frc consts  --     0.4031                 0.5630                 0.6289
 IR Inten    --    40.8096                33.7217                 3.3453

                     7                      8                      9
                    A'                     A'                     A'
 Frequencies --   907.4873               946.2976              1072.6880
 Red. masses --     5.4261                 4.4351                 1.6436
 Frc consts  --     2.6328                 2.3400                 1.1143
 IR Inten    --     7.6160                 1.3694                39.2660

                    10                     11                     12
                    A'                     A'                     A'
 Frequencies --  1093.1810              1143.4610              1157.9881
 Red. masses --     1.5690                 1.4702                 5.0526
 Frc consts  --     1.1047                 1.1326                 3.9918
 IR Inten    --    16.2535                 2.8973                 5.0334

                    13                     14                     15
                    A'                     A'                     A'
 Frequencies --  1285.8751              1362.2902              1426.7092
 Red. masses --     1.4110                 3.2783                 2.8023
 Frc consts  --     1.3746                 3.5846                 3.3607
 IR Inten    --     0.3136                 5.8569                15.1084

                    16                     17                     18
                    A'                     A'                     A'
 Frequencies --  1499.1101              1556.9449              3242.1394
 Red. masses --     3.0007                 3.1687                 1.0938
 Frc consts  --     3.9731                 4.5257                 6.7738
 IR Inten    --    19.1213                10.6896                 3.9828

                    19                     20                     21
                    A'                     A'                     A'
 Frequencies --  3244.2219              3272.0378              3651.7316
 Red. masses --     1.0951                 1.1041                 1.0814
 Frc consts  --     6.7912                 6.9644                 8.4963
 IR Inten    --     0.7619                 0.9917                54.8240

 - Thermochemistry -
 -------------------
 Temperature   298.150 Kelvin.  Pressure   1.00000 Atm.
 Atom     1 has atomic number  7 and mass  14.00307

 Molecular mass:    68.03745 amu.
 Principal axes and moments of inertia in atomic units:
                           1         2         3
     Eigenvalues --   184.64149 190.77648 375.41797
           X            0.46038   0.88772   0.00000
           Y            0.88772  -0.46038   0.00000
           Z            0.00000   0.00000   1.00000
 This molecule is an asymmetric top.
 Rotational symmetry number  1.
 Rotational temperatures (Kelvin)      0.46909     0.45401     0.23071
 Rotational constants (GHZ):           9.77430     9.45998     4.80729
 Zero-point vibrational energy     186535.2 (Joules/Mol)
                                   44.58298 (Kcal/Mol)
 Warning -- explicit consideration of   1 degrees of freedom as
           vibrations may cause significant error
 Vibrational temperatures:    776.57   930.49   982.70  1068.87  1189.83
          (Kelvin)           1272.93  1305.67  1361.51  1543.36  1572.84
                             1645.18  1666.08  1850.09  1960.03  2052.71
                             2156.88  2240.09  4664.71  4667.71  4707.73
                             5254.02

 Zero-point correction=                           0.071048 (Hartree/Particle)
 Thermal correction to Energy=                    0.074785
 Thermal correction to Enthalpy=                  0.075729
 Thermal correction to Gibbs Free Energy=         0.044797
 Sum of electronic and zero-point Energies=           -226.234259
 Sum of electronic and thermal Energies=              -226.230521
 Sum of electronic and thermal Enthalpies=            -226.229577
 Sum of electronic and thermal Free Energies=         -226.260509

                     E (Thermal)             CV                S
                      KCal/Mol        Cal/Mol-Kelvin    Cal/Mol-Kelvin
 Total                   46.928             13.306             65.102
 Electronic               0.000              0.000              0.000
 Translational            0.889              2.981             38.570
 Rotational               0.889              2.981             24.096
 Vibrational             45.151              7.344              2.436
 Vibration     1          0.895              1.162              0.566

 Optimization completed.
    -- Stationary point found.
 Normal termination of Gaussian 09 at Thu Mar  8 14:33:52 2012.
