 Gaussian 03, Revision C.02,
 Gaussian 03:  AM64L-G03RevC.02 12-Jun-2004

 ------------------------------------------------
 #PBEPBE/6-31G* opt freq integral(grid=ultrafine)
 ------------------------------------------------

 ---------------------------------------
 1himidaz casno=288324 method=69 basis=1
 ---------------------------------------
 Symbolic Z-matrix:
 Charge =  0 Multiplicity = 1

 SCF Done:  E(RPBE-PBE) =  -225.939432624     A.U. after   15 cycles
 SCF Done:  E(RPBE-PBE) =  -225.943901495     A.U. after   13 cycles
 SCF Done:  E(RPBE-PBE) =  -225.943947036     A.U. after    9 cycles
 SCF Done:  E(RPBE-PBE) =  -225.943954439     A.U. after    9 cycles
 Optimization completed.
    -- Stationary point found.
 Normal termination of Gaussian 03 at Fri Feb 17 07:17:22 2006.

 -------------------------------------------------------------------
 #P Geom=AllCheck Guess=Read SCRF=Check GenChk RPBEPBE/6-31G(d) Freq
 -------------------------------------------------------------------

 1himidaz casno=288324 method=69 basis=1
 ---------------------------------------
 Redundant internal coordinates taken from checkpoint file:
 /scratch/Gau-17456.chk
 Charge =  0 Multiplicity = 1

                         Standard orientation:
 ---------------------------------------------------------------------
 Center     Atomic     Atomic              Coordinates (Angstroms)
 Number     Number      Type              X           Y           Z
 ---------------------------------------------------------------------
    1          7             0       -0.745412   -0.995989    0.000000
    2          1             0       -0.007050    2.128096    0.000000
    3          6             0        1.125410    0.305170    0.000000
    4          1             0        2.130654    0.720725    0.000000
    5          6             0        0.637243   -0.987271    0.000000
    6          1             0        1.205558   -1.917404    0.000000
    7          1             0       -2.115062    0.667246    0.000000
    8          6             0       -1.095356    0.282099    0.000000
    9          7             0        0.000000    1.110467    0.000000
 ---------------------------------------------------------------------

 SCF Done:  E(RPBE-PBE) =  -225.943954439     A.U. after    1 cycles

 The electronic state is 1-A'.
 Alpha  occ. eigenvalues --  -14.06270 -13.97732  -9.94395  -9.92413  -9.90503
 Alpha  occ. eigenvalues --   -0.92016  -0.78429  -0.66405  -0.55198  -0.52416
 Alpha  occ. eigenvalues --   -0.49916  -0.38526  -0.38292  -0.37377  -0.35067
 Alpha  occ. eigenvalues --   -0.24034  -0.21436  -0.19340
 Alpha virt. eigenvalues --    0.00112   0.03885   0.04533   0.10527   0.12303
 Alpha virt. eigenvalues --    0.14303   0.18370   0.20276   0.27349   0.31779
 Alpha virt. eigenvalues --    0.40550   0.48689   0.50475   0.51384   0.55250

 Mulliken atomic charges:
              1
     1  N   -0.401445
     2  H    0.332190
     3  C    0.007756
     4  H    0.157840
     5  C   -0.052866
     6  H    0.142525
     7  H    0.160942
     8  C    0.181788
     9  N   -0.528731
 Sum of Mulliken charges=   0.00000

 Dipole moment (field-independent basis, Debye):
    X=     1.0899    Y=     3.5093    Z=     0.0000  Tot=     3.6747
 Quadrupole moment (field-independent basis, Debye-Ang):
   XX=   -26.1810   YY=   -24.9567   ZZ=   -31.1778
   XY=    -3.0196   XZ=     0.0000   YZ=     0.0000

  Exact polarizability:  49.288  -1.300  47.330   0.000   0.000  17.801
 Approx polarizability:  95.342   2.914  98.873   0.000   0.000  29.076

                     1                      2                      3
                    A"                     A"                     A"
 Frequencies --   495.0823               627.4677               666.4585
 Red. masses --     1.5998                 2.5772                 2.9376
 Frc consts  --     0.2310                 0.5978                 0.7688
 IR Inten    --    86.9784                16.4473                 2.2725

                     4                      5                      6
                    A"                     A"                     A"
 Frequencies --   679.2096               749.6561               812.7677
 Red. masses --     1.2087                 1.3007                 1.2800
 Frc consts  --     0.3285                 0.4307                 0.4982
 IR Inten    --    14.6733                40.8061                 9.6010

                     7                      8                      9
                    A'                     A'                     A'
 Frequencies --   870.2142               913.4421              1055.7699
 Red. masses --     5.2794                 4.5437                 1.5321
 Frc consts  --     2.3555                 2.2337                 1.0062
 IR Inten    --     9.1035                 1.7253                24.3846

                    10                     11                     12
                    A'                     A'                     A'
 Frequencies --  1080.7171              1125.0375              1156.5695
 Red. masses --     1.4766                 1.3622                 6.2513
 Frc consts  --     1.0161                 1.0159                 4.9268
 IR Inten    --    24.1682                 3.0616                 3.7386

                    13                     14                     15
                    A'                     A'                     A'
 Frequencies --  1248.0564              1347.7368              1413.3667
 Red. masses --     1.3472                 3.5166                 3.3878
 Frc consts  --     1.2364                 3.7634                 3.9873
 IR Inten    --     0.5646                 8.0884                12.3194

                    16                     17                     18
                    A'                     A'                     A'
 Frequencies --  1476.4494              1524.3484              3190.9980
 Red. masses --     3.4292                 3.2953                 1.0915
 Frc consts  --     4.4044                 4.5114                 6.5486
 IR Inten    --    16.4443                10.3565                 7.1382

                    19                     20                     21
                    A'                     A'                     A'
 Frequencies --  3197.9689              3223.5603              3556.6627
 Red. masses --     1.0959                 1.1032                 1.0808
 Frc consts  --     6.6032                 6.7544                 8.0556
 IR Inten    --     2.5075                 2.8112                28.9577

 - Thermochemistry -
 -------------------
 Temperature   298.150 Kelvin.  Pressure   1.00000 Atm.
 Atom  1 has atomic number  7 and mass  14.00307

 Molecular mass:    68.03745 amu.
 Principal axes and moments of inertia in atomic units:
                           1         2         3
     EIGENVALUES --   186.53935 195.24042 381.77977
           X            0.47101   0.88213   0.00000
           Y            0.88213  -0.47101   0.00000
           Z            0.00000   0.00000   1.00000
 This molecule is an asymmetric top.
 Rotational symmetry number  1.
 Rotational temperatures (Kelvin)      0.46432     0.44363     0.22687
 Rotational constants (GHZ):           9.67486     9.24369     4.72718
 Zero-point vibrational energy     181901.4 (Joules/Mol)
                                   43.47548 (Kcal/Mol)
 Warning -- explicit consideration of   1 degrees of freedom as
           vibrations may cause significant error
 Vibrational temperatures:    712.31   902.78   958.88   977.23  1078.59
          (Kelvin)           1169.39  1252.04  1314.24  1519.02  1554.91
                             1618.68  1664.04  1795.67  1939.09  2033.52
                             2124.28  2193.19  4591.13  4601.16  4637.98
                             5117.24

 Zero-point correction=                           0.069283 (Hartree/Particle)
 Thermal correction to Energy=                    0.073156
 Thermal correction to Enthalpy=                  0.074100
 Thermal correction to Gibbs Free Energy=         0.042953
 Sum of electronic and zero-point Energies=           -225.874672
 Sum of electronic and thermal Energies=              -225.870798
 Sum of electronic and thermal Enthalpies=            -225.869854
 Sum of electronic and thermal Free Energies=         -225.901001

                     E (Thermal)             CV                S
                      KCal/Mol        Cal/Mol-Kelvin    Cal/Mol-Kelvin
 Total                   45.906             14.017             65.555
 Electronic               0.000              0.000              0.000
 Translational            0.889              2.981             38.570
 Rotational               0.889              2.981             24.145
 Vibrational             44.129              8.055              2.839
 Vibration  1             0.851              1.261              0.671

 Optimization completed.
    -- Stationary point found.
 Normal termination of Gaussian 03 at Fri Feb 17 07:23:02 2006.
