 Gaussian 98, Revision A.4,
 Gaussian 98:  IBM-RS6000-G98RevA.4 11-Sep-1998

 --------------------
 #CCD/6-31G* OPT FREQ
 --------------------

 --------------------------------
 1H imidazole C3H4N2 casno=288324
 --------------------------------
 Symbolic Z-matrix:
 Charge =  0 Multiplicity = 1

 SCF Done:  E(RHF) =  -224.814429221     A.U. after   15 cycles
 SCF Done:  E(RHF) =  -224.811945217     A.U. after   11 cycles
 SCF Done:  E(RHF) =  -224.812162542     A.U. after   10 cycles
 SCF Done:  E(RHF) =  -224.812174833     A.U. after    9 cycles
 Optimization completed.
    -- Stationary point found.
 Normal termination of Gaussian 98.

 ----------------------------------------------------
 #N Geom=AllCheck Guess=TCheck RCCD(FC)/6-31G(d) Freq
 ----------------------------------------------------

 1H imidazole C3H4N2 casno=288324
 --------------------------------
 Redundant internal coordinates taken from checkpointfile:
 /wrk/rdj3/Gau-10884.chk
 Charge =  0 Multiplicity = 1

                         Standard orientation:
 ---------------------------------------------------------------------
 Center     Atomic     Atomic              Coordinates (Angstroms)
 Number     Number      Type              X           Y           Z
 ---------------------------------------------------------------------
    1          7             0       -0.744945   -0.986770    0.000000
    2          1             0       -0.011806    2.114585    0.000000
    3          6             0        1.118986    0.300019    0.000000
    4          1             0        2.121569    0.704188    0.000000
    5          6             0        0.637036   -0.981746    0.000000
    6          1             0        1.200237   -1.906340    0.000000
    7          1             0       -2.102591    0.661588    0.000000
    8          6             0       -1.088155    0.281676    0.000000
    9          7             0        0.000000    1.104811    0.000000
 ---------------------------------------------------------------------

 SCF Done:  E(RHF) =  -224.812174833     A.U. after    1 cycles
 SCF Done:  E(RHF) =  -224.812183341     A.U. after    9 cycles
 SCF Done:  E(RHF) =  -224.812164509     A.U. after    9 cycles
 SCF Done:  E(RHF) =  -224.812233313     A.U. after    9 cycles
 SCF Done:  E(RHF) =  -224.812114028     A.U. after    9 cycles
 SCF Done:  E(RHF) =  -224.812174595     A.U. after    7 cycles
 SCF Done:  E(RHF) =  -224.812198306     A.U. after    9 cycles
 SCF Done:  E(RHF) =  -224.812148083     A.U. after    9 cycles
 SCF Done:  E(RHF) =  -224.812143873     A.U. after    9 cycles
 SCF Done:  E(RHF) =  -224.812203120     A.U. after    9 cycles
 SCF Done:  E(RHF) =  -224.812174496     A.U. after    7 cycles
 SCF Done:  E(RHF) =  -224.812159979     A.U. after    8 cycles
 SCF Done:  E(RHF) =  -224.812187256     A.U. after    8 cycles
 SCF Done:  E(RHF) =  -224.812173578     A.U. after    8 cycles
 SCF Done:  E(RHF) =  -224.812172348     A.U. after    8 cycles
 SCF Done:  E(RHF) =  -224.812174647     A.U. after    7 cycles

  The electronic state is 1-A'.
 Alpha  occ. eigenvalues --  -15.62473 -15.54332 -11.29434 -11.26013 -11.23970
 Alpha  occ. eigenvalues --   -1.33460  -1.15972  -1.00171  -0.82232  -0.79299
 Alpha  occ. eigenvalues --   -0.75250  -0.60301  -0.59708  -0.59065  -0.56246
 Alpha  occ. eigenvalues --   -0.42971  -0.39106  -0.31538
 Alpha virt. eigenvalues --    0.18988   0.21670   0.24362   0.28068   0.29636
 Alpha virt. eigenvalues --    0.31700   0.39543   0.41236   0.48793   0.51557
 Alpha virt. eigenvalues --    0.67602   0.71609   0.76832   0.80116   0.80966

                     1                      2                      3
                    A"                     A"                     A"
 Frequencies --   492.5305               641.4350               685.2498
 Red. masses --     1.6215                 2.6794                 2.7976
 Frc consts  --     0.2318                 0.6495                 0.7740
 IR Inten    --   109.2265                19.8023                 5.5737
 Raman Activ --     0.0000                 0.0000                 0.0000

                     4                      5                      6
                    A"                     A"                     A"
 Frequencies --   719.1669               816.0257               839.0670
 Red. masses --     1.2071                 1.3157                 1.2571
 Frc consts  --     0.3678                 0.5162                 0.5215
 IR Inten    --    28.1378                37.0096                 5.9740
 Raman Activ --     0.0000                 0.0000                 0.0000

                     7                      8                      9
                    A'                     A'                     A'
 Frequencies --   920.2925               957.1960              1109.8388
 Red. masses --     5.5694                 4.7291                 1.5363
 Frc consts  --     2.7792                 2.5529                 1.1149
 IR Inten    --     6.9792                 1.9233                36.6467
 Raman Activ --     0.0000                 0.0000                 0.0000

                    10                     11                     12
                    A'                     A'                     A'
 Frequencies --  1136.1412              1187.4969              1191.3107
 Red. masses --     1.4411                 1.5026                 4.0883
 Frc consts  --     1.0960                 1.2484                 3.4185
 IR Inten    --    15.4227                 0.3997                 9.0711
 Raman Activ --     0.0000                 0.0000                 0.0000

                    13                     14                     15
                    A'                     A'                     A'
 Frequencies --  1316.5186              1417.9191              1508.2618
 Red. masses --     1.3727                 3.2090                 3.2017
 Frc consts  --     1.4018                 3.8012                 4.2912
 IR Inten    --     0.6503                 9.6077                25.5167
 Raman Activ --     0.0000                 0.0000                 0.0000

                    16                     17                     18
                    A'                     A'                     A'
 Frequencies --  1565.2670              1618.3097              3289.6146
 Red. masses --     3.4479                 3.7229                 1.0927
 Frc consts  --     4.9772                 5.7445                 6.9669
 IR Inten    --    23.2239                12.4796                 6.2144
 Raman Activ --     0.0000                 0.0000                 0.0000

                    19                     20                     21
                    A'                     A'                     A'
 Frequencies --  3292.4234              3319.0008              3699.8491
 Red. masses --     1.0979                 1.1066                 1.0821
 Frc consts  --     7.0123                 7.1822                 8.7278
 IR Inten    --     1.2571                 2.0069                70.5348
 Raman Activ --     0.0000                 0.0000                 0.0000

 - Thermochemistry -
 -------------------
 Temperature   298.150 Kelvin.  Pressure   1.00000 Atm.
 Atom  1 has atomic number  7 and mass  14.00307

 Molecular mass:    68.03745 amu.
 Principal axes and moments of inertia in atomic units:
                           1         2         3
     EIGENVALUES --   185.00565 192.44607 377.45172
           X            0.48540   0.87429   0.00000
           Y            0.87429  -0.48540   0.00000
           Z            0.00000   0.00000   1.00000
 THIS MOLECULE IS AN ASYMMETRIC TOP.
 ROTATIONAL SYMMETRY NUMBER  1.
 ROTATIONAL TEMPERATURES (KELVIN)      0.46817     0.45007     0.22947
 ROTATIONAL CONSTANTS (GHZ)            9.75506     9.37791     4.78138
 Zero-point vibrational energy     189745.2 (Joules/Mol)
                                   45.35019 (Kcal/Mol)
 WARNING-- EXPLICIT CONSIDERATION OF   1 DEGREES OF FREEDOM AS
           VIBRATIONS MAY CAUSE SIGNIFICANT ERROR
 VIBRATIONAL TEMPERATURES:    708.64   922.88   985.92  1034.71  1174.07
          (KELVIN)           1207.22  1324.09  1377.18  1596.80  1634.64
                             1708.53  1714.02  1894.17  2040.06  2170.04
                             2252.06  2328.37  4732.99  4737.04  4775.27
                             5323.23

 Zero-point correction=                           0.072270 (Hartree/Particle)
 Thermal correction to Energy=                    0.076039
 Thermal correction to Enthalpy=                  0.076984
 Thermal correction to Gibbs Free Energy=         0.045989
 Sum of electronic and zero-point Energies=           -225.462547
 Sum of electronic and thermal Energies=              -225.458778
 Sum of electronic and thermal Enthalpies=            -225.457834
 Sum of electronic and thermal Free Energies=         -225.488828

                     E (Thermal)             CV                S
                      KCAL/MOL        CAL/MOL-KELVIN    CAL/MOL-KELVIN
 TOTAL                   47.715             13.304             65.233
 ELECTRONIC               0.000              0.000              0.000
 TRANSLATIONAL            0.889              2.981             38.570
 ROTATIONAL               0.889              2.981             24.112
 VIBRATIONAL             45.938              7.343              2.551
 VIBRATION  1             0.848              1.267              0.677
                       Q            LOG10(Q)             LN(Q)
 TOTAL BOT       0.702228D-21        -21.153522        -48.707783
 TOTAL V=0       0.122519D+13         12.088204         27.834119
 VIB (BOT)       0.767130D-33        -33.115131        -76.250407
 VIB (BOT)  1    0.335899D+00         -0.473791         -1.090945
 VIB (V=0)       0.133843D+01          0.126595          0.291495
 VIB (V=0)  1    0.110235D+01          0.042320          0.097446
 ELECTRONIC      0.100000D+01          0.000000          0.000000
 TRANSLATIONAL   0.220588D+08          7.343582         16.909224
 ROTATIONAL      0.414980D+05          4.618027         10.633400
 ***** Axes restored to original set *****
 -------------------------------------------------------------------
 Center     Atomic                   Forces (Hartrees/Bohr)
 Number     Number              X              Y              Z
 -------------------------------------------------------------------
    1          7          -0.000053256    0.000000000    0.000103341
    2          1           0.000002384    0.000000000   -0.000023923
    3          6          -0.000193169    0.000000000   -0.000251162
    4          1          -0.000066106    0.000000000   -0.000037924
    5          6           0.000221198    0.000000000    0.000170209
    6          1          -0.000044675    0.000000000    0.000012690
    7          1           0.000082994    0.000000000    0.000045147
    8          6           0.000019142    0.000000000   -0.000138870
    9          7           0.000031489    0.000000000    0.000120491
 -------------------------------------------------------------------
 Cartesian Forces:  Max     0.000251162 RMS     0.000095149

 GradGradGradGradGradGradGradGradGradGradGradGradGradGradGradGradGradGrad
 Berny optimization.
 Internal  Forces:  Max     0.000223955 RMS     0.000057254
 Search for a local minimum.
 Step number   1 out of a maximum of  48
 All quantities printed in internal units (Hartrees-Bohrs-Radians)
 Second derivative matrix not updated -- analytic derivatives used.
     Eigenvalues ---    0.00462   0.01030   0.02022   0.02748   0.05803
     Eigenvalues ---    0.06201   0.10389   0.10973   0.11534   0.12462
     Eigenvalues ---    0.24018   0.26182   0.36747   0.38062   0.38408
     Eigenvalues ---    0.38593   0.43562   0.46699   0.48831   0.51188
     Eigenvalues ---    0.609281000.000001000.000001000.000001000.00000
     Eigenvalues --- 1000.000001000.000001000.000001000.000001000.00000
     Eigenvalues --- 1000.000001000.000001000.000001000.000001000.00000
     Eigenvalues --- 1000.000001000.000001000.00000
 Angle between quadratic step and forces=  28.69 degrees.
 Linear search not attempted -- first point.
 Iteration  1 RMS(Cart)=  0.00019509 RMS(Int)=  0.00000004
 Iteration  2 RMS(Cart)=  0.00000004 RMS(Int)=  0.00000001
 Variable       Old X    -DE/DX   Delta X   Delta X   Delta X     New X
                                 (Linear)    (Quad)   (Total)
    R1        2.61158  -0.00003   0.00000  -0.00026  -0.00026   2.61132
    R2        2.48321   0.00008   0.00000   0.00024   0.00024   2.48345
    R3        1.90833   0.00002   0.00000   0.00007   0.00007   1.90839
    R4        2.04276   0.00008   0.00000   0.00017   0.00017   2.04293
    R5        2.58775   0.00022   0.00000   0.00052   0.00052   2.58827
    R6        2.60468   0.00008   0.00000   0.00018   0.00018   2.60486
    R7        2.04586   0.00004   0.00000   0.00013   0.00013   2.04599
    R8        2.04703   0.00008   0.00000   0.00019   0.00019   2.04722
    R9        2.57837   0.00004   0.00000  -0.00008  -0.00008   2.57829
    A1        1.83141  -0.00001   0.00000  -0.00004  -0.00004   1.83137
    A2        2.31365   0.00005   0.00000   0.00023   0.00023   2.31388
    A3        2.13489   0.00007   0.00000   0.00024   0.00024   2.13513
    A4        1.83465  -0.00012   0.00000  -0.00047  -0.00047   1.83418
    A5        1.93408   0.00006   0.00000   0.00029   0.00029   1.93437
    A6        2.11427  -0.00001   0.00000   0.00014   0.00014   2.11441
    A7        2.23483  -0.00006   0.00000  -0.00043  -0.00043   2.23441
    A8        2.19338  -0.00005   0.00000  -0.00040  -0.00040   2.19298
    A9        1.95416  -0.00001   0.00000  -0.00009  -0.00009   1.95407
   A10        2.13564   0.00006   0.00000   0.00050   0.00050   2.13614
   A11        2.20599  -0.00004   0.00000  -0.00016  -0.00016   2.20584
   A12        2.20672  -0.00004   0.00000  -0.00017  -0.00017   2.20656
   A13        1.87047   0.00008   0.00000   0.00032   0.00032   1.87079
    D1        0.00000   0.00000   0.00000   0.00000   0.00000   0.00000
    D2        3.14159   0.00000   0.00000   0.00000   0.00000   3.14159
    D3        3.14159   0.00000   0.00000   0.00000   0.00000   3.14159
    D4        0.00000   0.00000   0.00000   0.00000   0.00000   0.00000
    D5        3.14159   0.00000   0.00000   0.00000   0.00000   3.14159
    D6        0.00000   0.00000   0.00000   0.00000   0.00000   0.00000
    D7        0.00000   0.00000   0.00000   0.00000   0.00000   0.00000
    D8        3.14159   0.00000   0.00000   0.00000   0.00000   3.14159
    D9        0.00000   0.00000   0.00000   0.00000   0.00000   0.00000
   D10        3.14159   0.00000   0.00000   0.00000   0.00000   3.14159
   D11        3.14159   0.00000   0.00000   0.00000   0.00000   3.14159
   D12        0.00000   0.00000   0.00000   0.00000   0.00000   0.00000
   D13        3.14159   0.00000   0.00000   0.00000   0.00000   3.14159
   D14        0.00000   0.00000   0.00000   0.00000   0.00000   0.00000
   D15        0.00000   0.00000   0.00000   0.00000   0.00000   0.00000
   D16        3.14159   0.00000   0.00000   0.00000   0.00000   3.14159
         Item               Value     Threshold  Converged?
 Maximum Force            0.000224     0.000450     YES
 RMS     Force            0.000057     0.000300     YES
 Maximum Displacement     0.000634     0.001800     YES
 RMS     Displacement     0.000195     0.001200     YES
 Predicted change in Energy=-2.030665D-07
 Optimization completed.
    -- Stationary point found.
                         ----------------------------
                         !   Optimized Parameters   !
                         ! (Angstroms and Degrees)  !
 ------------------------                            -------------------------
 ! Name  Definition              Value          Derivative Info.             !
 -----------------------------------------------------------------------------
 ! R1    R(1,5)                  1.382          -DE/DX =    0.               !
 ! R2    R(1,8)                  1.3141         -DE/DX =    0.0001           !
 ! R3    R(2,9)                  1.0098         -DE/DX =    0.               !
 ! R4    R(3,4)                  1.081          -DE/DX =    0.0001           !
 ! R5    R(3,5)                  1.3694         -DE/DX =    0.0002           !
 ! R6    R(3,9)                  1.3783         -DE/DX =    0.0001           !
 ! R7    R(5,6)                  1.0826         -DE/DX =    0.               !
 ! R8    R(7,8)                  1.0832         -DE/DX =    0.0001           !
 ! R9    R(8,9)                  1.3644         -DE/DX =    0.               !
 ! A1    A(5,1,8)              104.932          -DE/DX =    0.               !
 ! A2    A(4,3,5)              132.5622         -DE/DX =    0.0001           !
 ! A3    A(4,3,9)              122.32           -DE/DX =    0.0001           !
 ! A4    A(5,3,9)              105.1178         -DE/DX =   -0.0001           !
 ! A5    A(1,5,3)              110.8148         -DE/DX =    0.0001           !
 ! A6    A(1,5,6)              121.1387         -DE/DX =    0.               !
 ! A7    A(3,5,6)              128.0465         -DE/DX =   -0.0001           !
 ! A8    A(1,8,7)              125.6715         -DE/DX =   -0.0001           !
 ! A9    A(1,8,9)              111.9654         -DE/DX =    0.               !
 ! A10   A(7,8,9)              122.3631         -DE/DX =    0.0001           !
 ! A11   A(2,9,3)              126.3941         -DE/DX =    0.               !
 ! A12   A(2,9,8)              126.4358         -DE/DX =    0.               !
 ! A13   A(3,9,8)              107.17           -DE/DX =    0.0001           !
 ! D1    D(8,1,5,3)              0.             -DE/DX =    0.               !
 ! D2    D(8,1,5,6)            180.             -DE/DX =    0.               !
 ! D3    D(5,1,8,7)            180.             -DE/DX =    0.               !
 ! D4    D(5,1,8,9)              0.             -DE/DX =    0.               !
 ! D5    D(4,3,5,1)            180.             -DE/DX =    0.               !
 ! D6    D(4,3,5,6)              0.             -DE/DX =    0.               !
 ! D7    D(9,3,5,1)              0.             -DE/DX =    0.               !
 ! D8    D(9,3,5,6)            180.             -DE/DX =    0.               !
 ! D9    D(4,3,9,2)              0.             -DE/DX =    0.               !
 ! D10   D(4,3,9,8)            180.             -DE/DX =    0.               !
 ! D11   D(5,3,9,2)            180.             -DE/DX =    0.               !
 ! D12   D(5,3,9,8)              0.             -DE/DX =    0.               !
 ! D13   D(1,8,9,2)            180.             -DE/DX =    0.               !
 ! D14   D(1,8,9,3)              0.             -DE/DX =    0.               !
 ! D15   D(7,8,9,2)              0.             -DE/DX =    0.               !
 ! D16   D(7,8,9,3)            180.             -DE/DX =    0.               !
 -----------------------------------------------------------------------------
 GradGradGradGradGradGradGradGradGradGradGradGradGradGradGradGradGradGrad

 1\1\GINC-PLUMBUM\Freq\RCCD-FC\6-31G(d)\C3H4N2\RDJ3\02-Feb-1999\0\\#N G
 EOM=ALLCHECK GUESS=TCHECK RCCD(FC)/6-31G(D) FREQ\\1H imidazole C3H4N2
 casno=288324\\0,1\N,0.5008278043,0.,1.1304113389\H,0.4927333345,0.,-2.
 0564100426\C,-1.0213448109,0.,-0.5468051305\H,-1.9056393025,0.,-1.1685
 362121\C,-0.843745417,0.,0.8110078209\H,-1.6025868069,0.,1.5831663093\
 H,2.1979815638,0.,-0.1657199064\C,1.1237048988,0.,-0.0266425134\N,0.25
 14326507,0.,-1.0758200832\\Version=IBM-RS6000-G98RevA.4\State=1-A'\HF=
 -224.8121748\MP2=-225.5190152\MP3=-225.533067\MP4D=-225.5506749\MP4DQ=
 -225.5337705\CCD=-225.5348174\RMSD=1.873e-09\RMSF=9.515e-05\Dipole=-0.
 1327609,0.,-1.5114448\DipoleDeriv=-0.3938054,0.,0.043972,0.,-0.3282755
 ,0.,-0.0158603,0.,-0.5726441,0.1950263,0.,-0.0055731,0.,0.3630519,0.,-
 0.0050709,0.,0.2271876,0.0713941,0.,-0.2089239,0.,-0.1054725,0.,-0.056
 4909,0.,0.1777067,0.0208184,0.,-0.0413927,0.,0.1785911,0.,-0.0623661,0
 .,0.0465752,0.1808191,0.,-0.0976804,0.,-0.1120877,0.,-0.0886398,0.,0.1
 079651,-0.0059377,0.,0.0649304,0.,0.1459998,0.,0.0750185,0.,0.0290936,
 -0.0289651,0.,0.0304299,0.,0.1484761,0.,0.0330016,0.,0.0691767,0.19070
 6,0.,0.1190251,0.,0.0389385,0.,0.0602412,0.,0.5944853,-0.2307928,0.,0.
 0949698,0.,-0.3293773,0.,0.0603854,0.,-0.6793269\PG=CS [SG(C3H4N2)]\NI
 mag=0\\0.51436854,0.,0.10389666,-0.06718814,0.,0.61279912,-0.00303450,
 0.,-0.00841690,0.08509954,0.,0.00725729,0.,0.,0.01080968,-0.00413366,0
 .,-0.00295272,-0.09890730,0.,0.46201217,-0.02970744,0.,-0.01664309,0.0
 0719836,0.,-0.00311848,0.78337194,0.,0.01444612,0.,0.,-0.00900016,0.,0
 .,0.09871171,-0.08973356,0.,-0.01765724,0.02926722,0.,-0.00111843,0.15
 425512,0.,0.78846731,0.00183663,0.,0.00113053,0.00005602,0.,0.00002508
 ,-0.26250190,0.,-0.14179214,0.27625632,0.,0.00772041,0.,0.,-0.00089816
 ,0.,0.,-0.01809367,0.,0.,0.01766803,-0.00381436,0.,-0.00559626,-0.0008
 3331,0.,0.00020158,-0.15241707,0.,-0.16956039,0.15578952,0.,0.16180444
 ,-0.27007935,0.,-0.04003566,-0.00906705,0.,0.00023779,-0.10792685,0.,-
 0.02274846,0.00541847,0.,-0.02250180,0.68428475,0.,-0.06780783,0.,0.,0
 .00268461,0.,0.,-0.05602052,0.,0.,-0.00372581,0.,0.,0.12380911,-0.0519
 2163,0.,-0.11930424,0.00341123,0.,0.00095332,-0.03668043,0.,-0.4247212
 7,0.00161217,0.,0.00227180,-0.15171919,0.,0.84073995,-0.01856573,0.,0.
 02197755,0.00083751,0.,-0.00001959,0.00912760,0.,-0.00610781,-0.000236
 11,0.,0.00055688,-0.19940295,0.,0.14941275,0.21442302,0.,-0.00591276,0
 .,0.,0.00216321,0.,0.,-0.00270242,0.,0.,-0.00168242,0.,0.,-0.02632369,
 0.,0.,0.02243501,-0.00807541,0.,0.01277884,0.00129347,0.,0.00020442,0.
 02114558,0.,-0.00748102,-0.00037174,0.,-0.00026442,0.15293315,0.,-0.22
 346094,-0.16203543,0.,0.22308973,-0.00780490,0.,0.00256151,-0.00061477
 ,0.,-0.00041784,0.00075438,0.,-0.00316963,-0.00034366,0.,0.00040392,0.
 00084029,0.,0.00256103,-0.00031693,0.,-0.00021562,0.37581700,0.,-0.005
 72694,0.,0.,-0.00106585,0.,0.,0.00302809,0.,0.,0.00184992,0.,0.,0.0073
 8972,0.,0.,0.00110458,0.,0.,0.02120247,0.03035245,0.,0.00135628,0.0004
 0924,0.,0.00025900,-0.00126431,0.,-0.00585667,-0.00106706,0.,0.0010089
 1,0.00329173,0.,-0.00472559,0.00145466,0.,0.00070563,-0.03927865,0.,0.
 06486826,-0.17700965,0.,0.12640888,0.01860439,0.,0.01415243,-0.0919299
 3,0.,0.00357407,-0.00329904,0.,0.00417739,-0.08807642,0.,0.01643375,-0
 .00667151,0.,-0.00358974,-0.35591332,0.,0.03670936,0.92926689,0.,-0.07
 643348,0.,0.,-0.01008092,0.,0.,0.01492662,0.,0.,0.00299158,0.,0.,0.010
 56111,0.,0.,0.00519236,0.,0.,-0.02481264,0.,0.,0.13347353,0.15423503,0
 .,-0.37511305,-0.01776229,0.,-0.01117133,-0.04034992,0.,-0.01742346,0.
 00434365,0.,-0.00489245,0.07819716,0.,0.00281416,-0.00224241,0.,0.0000
 9071,0.03254498,0.,-0.06537180,-0.08200732,0.,0.70512231,-0.00999072,0
 .,-0.01981508,-0.09908488,0.,0.09218200,-0.30839781,0.,0.07644223,-0.0
 1719403,0.,0.01863327,-0.01597733,0.,0.06691139,0.00079805,0.,-0.00108
 293,-0.01242710,0.,-0.03060591,-0.22498441,0.,-0.12694141,0.68728520,0
 .,0.02254306,0.,0.,-0.00186670,0.,0.,-0.04529318,0.,0.,-0.00582656,0.,
 0.,0.00943699,0.,0.,0.00572571,0.,0.,-0.00296987,0.,0.,-0.05581212,0.,
 0.,0.07406248,0.04027593,0.,-0.10631097,0.09153579,0.,-0.44838526,0.07
 510266,0.,-0.14466200,-0.01967214,0.,0.01502643,0.00232221,0.,-0.07455
 958,-0.00299248,0.,-0.00566165,0.00500663,0.,0.00775943,-0.11583752,0.
 ,-0.23407470,-0.07574399,0.,0.99088659\\0.00005326,0.,-0.00010334,-0.0
 0000238,0.,0.00002392,0.00019317,0.,0.00025116,0.00006611,0.,0.0000379
 2,-0.00022120,0.,-0.00017021,0.00004467,0.,-0.00001269,-0.00008299,0.,
 -0.00004515,-0.00001914,0.,0.00013887,-0.00003149,0.,-0.00012049\\\@

 WHAT, THEN, IS TIME?  IF NO ONE ASKS ME, I KNOW WHAT IT IS.
 IF I WISH TO EXPLAIN WHAT IT IS TO HIM WHO ASKS ME, I DO NOT KNOW.
                                   -- ST. AUGUSTINE (FIFTH CENTURY)
 Job cpu time:  0 days 13 hours  1 minutes  1.2 seconds.
 File lengths (MBytes):  RWF=  409 Int=    0 D2E=    0 Chk=    4 Scr=    1
 Normal termination of Gaussian 98.
