 Gaussian 09, Revision B.01,
 Gaussian 09:  EM64L-G09RevB.01 12-Aug-2010

 ---------------------------
 #MP3=FULL/6-31G(d) opt freq
 ---------------------------

 ---------------------------------------------------------------------
 1himidaz 1H-Imidazole casno=288324 state=1 config=1 method=71 basis=1
 ---------------------------------------------------------------------
 Symbolic Z-matrix:
 Charge =  0 Multiplicity = 1

 SCF Done:  E(RHF) =  -224.814429221     A.U. after   13 cycles
 E2 =    -0.7239743007D+00 EUMP2 =    -0.22553840352210D+03
 SCF Done:  E(RHF) =  -224.812421484     A.U. after   11 cycles
 E2 =    -0.7285051969D+00 EUMP2 =    -0.22554092668141D+03
 SCF Done:  E(RHF) =  -224.812606868     A.U. after   10 cycles
 E2 =    -0.7283443590D+00 EUMP2 =    -0.22554095122687D+03
 SCF Done:  E(RHF) =  -224.812616137     A.U. after    9 cycles
 E2 =    -0.7283554062D+00 EUMP2 =    -0.22554097154335D+03
 Optimization completed.
    -- Stationary point found.
 Normal termination of Gaussian 09 at Fri Sep  7 14:22:38 2012.

 ----------------------------------------------------------------------
 #N Geom=AllCheck Guess=TCheck SCRF=Check GenChk RMP3-Full/6-31G(d) Fre
 q
 ----------------------------------------------------------------------

 1himidaz 1H-Imidazole casno=288324 state=1 config=1 method=71 basis=1
 ---------------------------------------------------------------------
 Redundant internal coordinates taken from checkpoint file:
 /tmp/rdj3/g09-1239/Gau-1283.chk
 Charge =  0 Multiplicity = 1

                         Standard orientation:
 ---------------------------------------------------------------------
 Center     Atomic      Atomic             Coordinates (Angstroms)
 Number     Number       Type             X           Y           Z
 ---------------------------------------------------------------------
      1          7           0       -0.743844   -0.985460    0.000000
      2          1           0       -0.011920    2.111167    0.000000
      3          6           0        1.117784    0.299752    0.000000
      4          1           0        2.118305    0.702786    0.000000
      5          6           0        0.636025   -0.980893    0.000000
      6          1           0        1.198141   -1.903390    0.000000
      7          1           0       -2.099154    0.660378    0.000000
      8          6           0       -1.086887    0.281525    0.000000
      9          7           0        0.000000    1.103569    0.000000
 ---------------------------------------------------------------------

 SCF Done:  E(RHF) =  -224.812616137     A.U. after    1 cycles
 E2 =    -0.7283554046D+00 EUMP2 =    -0.22554097154182D+03
 SCF Done:  E(RHF) =  -224.812622230     A.U. after    8 cycles
 E2 =    -0.7283574651D+00 EUMP2 =    -0.22554097969514D+03
 SCF Done:  E(RHF) =  -224.812608209     A.U. after    9 cycles
 E2 =    -0.7283534313D+00 EUMP2 =    -0.22554096163989D+03
 SCF Done:  E(RHF) =  -224.812670904     A.U. after    9 cycles
 E2 =    -0.7282796853D+00 EUMP2 =    -0.22554095058947D+03
 SCF Done:  E(RHF) =  -224.812559027     A.U. after   10 cycles
 E2 =    -0.7284312108D+00 EUMP2 =    -0.22554099023771D+03
 SCF Done:  E(RHF) =  -224.812615901     A.U. after    7 cycles
 E2 =    -0.7283554578D+00 EUMP2 =    -0.22554097135851D+03
 E2 =    -0.7283567994D+00 EUMP2 =    -0.22554097202969D+03
 E2 =    -0.7283540622D+00 EUMP2 =    -0.22554097083597D+03
 E2 =    -0.7283891782D+00 EUMP2 =    -0.22554097771989D+03
 E2 =    -0.7283216524D+00 EUMP2 =    -0.22554096360391D+03
 E2 =    -0.7283554154D+00 EUMP2 =    -0.22554097151920D+03
 E2 =    -0.7283707119D+00 EUMP2 =    -0.22554097308446D+03
 E2 =    -0.7283402192D+00 EUMP2 =    -0.22554096695474D+03
 E2 =    -0.7283902825D+00 EUMP2 =    -0.22554098284316D+03
 E2 =    -0.7283206187D+00 EUMP2 =    -0.22554095768952D+03
 E2 =    -0.7283554942D+00 EUMP2 =    -0.22554097137343D+03
 E2 =    -0.7283637280D+00 EUMP2 =    -0.22554097187980D+03
 E2 =    -0.7283471051D+00 EUMP2 =    -0.22554097067793D+03
 E2 =    -0.7283411105D+00 EUMP2 =    -0.22554097004182D+03
 E2 =    -0.7283697121D+00 EUMP2 =    -0.22554097195947D+03
 E2 =    -0.7283554184D+00 EUMP2 =    -0.22554097149853D+03
 E2 =    -0.7283392646D+00 EUMP2 =    -0.22554096959146D+03
 E2 =    -0.7283715730D+00 EUMP2 =    -0.22554097224872D+03
 E2 =    -0.7283622175D+00 EUMP2 =    -0.22554097248181D+03
 E2 =    -0.7283486101D+00 EUMP2 =    -0.22554097023273D+03
 E2 =    -0.7283554209D+00 EUMP2 =    -0.22554097150258D+03
 SCF Done:  E(RHF) =  -224.812639062     A.U. after    9 cycles
 E2 =    -0.7283217760D+00 EUMP2 =    -0.22554096083849D+03
 SCF Done:  E(RHF) =  -224.812589906     A.U. after    9 cycles
 E2 =    -0.7283892038D+00 EUMP2 =    -0.22554097910993D+03
 SCF Done:  E(RHF) =  -224.812585636     A.U. after    9 cycles
 E2 =    -0.7284004401D+00 EUMP2 =    -0.22554098607600D+03
 SCF Done:  E(RHF) =  -224.812643942     A.U. after   10 cycles
 E2 =    -0.7283103807D+00 EUMP2 =    -0.22554095432258D+03
 SCF Done:  E(RHF) =  -224.812615803     A.U. after    7 cycles
 E2 =    -0.7283555173D+00 EUMP2 =    -0.22554097132026D+03
 SCF Done:  E(RHF) =  -224.812601623     A.U. after    8 cycles
 E2 =    -0.7283738470D+00 EUMP2 =    -0.22554097547038D+03
 SCF Done:  E(RHF) =  -224.812628203     A.U. after    8 cycles
 E2 =    -0.7283370292D+00 EUMP2 =    -0.22554096523240D+03
 SCF Done:  E(RHF) =  -224.812614733     A.U. after    8 cycles
 E2 =    -0.7283479813D+00 EUMP2 =    -0.22554096271378D+03
 SCF Done:  E(RHF) =  -224.812613765     A.U. after    9 cycles
 E2 =    -0.7283629930D+00 EUMP2 =    -0.22554097675791D+03
 SCF Done:  E(RHF) =  -224.812615953     A.U. after    7 cycles
 E2 =    -0.7283554514D+00 EUMP2 =    -0.22554097140461D+03

 Alpha  occ. eigenvalues --  -15.62439 -15.54271 -11.29353 -11.25937 -11.23890
 Alpha  occ. eigenvalues --   -1.33597  -1.16062  -1.00236  -0.82321  -0.79370
 Alpha  occ. eigenvalues --   -0.75354  -0.60358  -0.59773  -0.59142  -0.56308
 Alpha  occ. eigenvalues --   -0.42957  -0.39137  -0.31542
 Alpha virt. eigenvalues --    0.19040   0.21718   0.24428   0.28146   0.29702
 Alpha virt. eigenvalues --    0.31762   0.39610   0.41297   0.48826   0.51567
 Alpha virt. eigenvalues --    0.67721   0.71595   0.76815   0.80210   0.80952

 Mulliken atomic charges:
              1
     1  N   -0.436552
     2  H    0.379677
     3  C   -0.014123
     4  H    0.196549
     5  C   -0.068159
     6  H    0.177538
     7  H    0.190944
     8  C    0.190604
     9  N   -0.616479
 Sum of Mulliken atomic charges =   0.00000

 Dipole moment (field-independent basis, Debye):
    X=              1.2064    Y=              3.6886    Z=             -0.0016  Tot=              3.8809
 Quadrupole moment (field-independent basis, Debye-Ang):
   XX=            -26.2608   YY=            -25.4033   ZZ=            -31.5551
   XY=             -3.3441   XZ=             -0.0001   YZ=             -0.0031

                     1                      2                      3
                    A"                     A"                     A"
 Frequencies --   502.6039               644.5296               688.2987
 Red. masses --     1.6437                 2.7026                 2.7874
 Frc consts  --     0.2446                 0.6615                 0.7780
 IR Inten    --   107.9030                21.8559                 4.8913

                     4                      5                      6
                    A"                     A"                     A"
 Frequencies --   721.0850               818.4801               842.6401
 Red. masses --     1.2034                 1.3072                 1.2524
 Frc consts  --     0.3687                 0.5159                 0.5239
 IR Inten    --    28.1141                38.7221                 6.3702

                     7                      8                      9
                    A'                     A'                     A'
 Frequencies --   926.0077               962.7701              1115.0335
 Red. masses --     5.5809                 4.7410                 1.5435
 Frc consts  --     2.8196                 2.5892                 1.1306
 IR Inten    --     7.1062                 1.8302                37.8375

                    10                     11                     12
                    A'                     A'                     A'
 Frequencies --  1140.5684              1192.3894              1197.6381
 Red. masses --     1.4468                 1.5945                 3.6123
 Frc consts  --     1.1089                 1.3357                 3.0527
 IR Inten    --    16.1735                 0.4246                 8.4341

                    13                     14                     15
                    A'                     A'                     A'
 Frequencies --  1323.7997              1422.5755              1512.5042
 Red. masses --     1.3852                 3.1563                 3.1723
 Frc consts  --     1.4302                 3.7633                 4.2758
 IR Inten    --     0.8229                 9.6233                23.9320

                    16                     17                     18
                    A'                     A'                     A'
 Frequencies --  1572.6368              1625.6184              3316.9004
 Red. masses --     3.3786                 3.6629                 1.0925
 Frc consts  --     4.9231                 5.7032                 7.0819
 IR Inten    --    22.9829                12.7735                 5.5058

                    19                     20                     21
                    A'                     A'                     A'
 Frequencies --  3319.8695              3345.7032              3729.8838
 Red. masses --     1.0976                 1.1059                 1.0821
 Frc consts  --     7.1276                 7.2938                 8.8694
 IR Inten    --     0.9405                 1.6093                74.2991

 - Thermochemistry -
 -------------------
 Temperature   298.150 Kelvin.  Pressure   1.00000 Atm.
 Atom     1 has atomic number  7 and mass  14.00307

 Molecular mass:    68.03745 amu.
 Principal axes and moments of inertia in atomic units:
                           1         2         3
     Eigenvalues --   184.53943 191.96880 376.50824
           X            0.48244   0.87593   0.00000
           Y            0.87593  -0.48244   0.00000
           Z            0.00000   0.00000   1.00000
 This molecule is an asymmetric top.
 Rotational symmetry number  1.
 Rotational temperatures (Kelvin)      0.46935     0.45119     0.23004
 Rotational constants (GHZ):           9.77970     9.40122     4.79336
 Zero-point vibrational energy     190933.2 (Joules/Mol)
                                   45.63413 (Kcal/Mol)
 Warning -- explicit consideration of   1 degrees of freedom as
           vibrations may cause significant error
 Vibrational temperatures:    723.13   927.33   990.31  1037.48  1177.61
          (Kelvin)           1212.37  1332.32  1385.21  1604.28  1641.02
                             1715.58  1723.13  1904.65  2046.77  2176.15
                             2262.67  2338.90  4772.27  4776.55  4813.71
                             5366.46

 Zero-point correction=                           0.072723 (Hartree/Particle)
 Thermal correction to Energy=                    0.076475
 Thermal correction to Enthalpy=                  0.077419
 Thermal correction to Gibbs Free Energy=         0.046453
 Sum of electronic and zero-point Energies=           -225.481785
 Sum of electronic and thermal Energies=              -225.478032
 Sum of electronic and thermal Enthalpies=            -225.477088
 Sum of electronic and thermal Free Energies=         -225.508054

                     E (Thermal)             CV                S
                      KCal/Mol        Cal/Mol-Kelvin    Cal/Mol-Kelvin
 Total                   47.989             13.218             65.173
 Electronic               0.000              0.000              0.000
 Translational            0.889              2.981             38.570
 Rotational               0.889              2.981             24.104
 Vibrational             46.211              7.257              2.499
 Vibration     1          0.858              1.244              0.652

 Optimization completed.
    -- Stationary point found.
 Normal termination of Gaussian 09 at Fri Sep  7 14:41:13 2012.
