 Gaussian 09, Revision B.01,
 Gaussian 09:  EM64L-G09RevB.01 12-Aug-2010

 ------------------------------
 #MP3=FULL/6-31+G(d,p) opt freq
 ------------------------------

 ---------------------------------------------------------------------
 1himidaz 1H-Imidazole casno=288324 state=1 config=1 method=71 basis=4
 ---------------------------------------------------------------------
 Symbolic Z-matrix:
 Charge =  0 Multiplicity = 1

 SCF Done:  E(RHF) =  -224.832656072     A.U. after   14 cycles
 E2 =    -0.7563633603D+00 EUMP2 =    -0.22558901943257D+03
 SCF Done:  E(RHF) =  -224.831022284     A.U. after   11 cycles
 E2 =    -0.7605225054D+00 EUMP2 =    -0.22559154478925D+03
 SCF Done:  E(RHF) =  -224.831143442     A.U. after   10 cycles
 E2 =    -0.7604328494D+00 EUMP2 =    -0.22559157629109D+03
 SCF Done:  E(RHF) =  -224.831154347     A.U. after    9 cycles
 E2 =    -0.7604428658D+00 EUMP2 =    -0.22559159721328D+03
 Optimization completed.
    -- Stationary point found.
 Normal termination of Gaussian 09 at Fri Feb  1 02:04:47 2013.

 ----------------------------------------------------------------------
 #N Geom=AllCheck Guess=TCheck SCRF=Check GenChk RMP3-Full/6-31+G(d,p)
 Freq
 ----------------------------------------------------------------------

 1himidaz 1H-Imidazole casno=288324 state=1 config=1 method=71 basis=4
 ---------------------------------------------------------------------
 Redundant internal coordinates taken from checkpoint file:
 /tmp/rdj3/g09-4531/Gau-4575.chk
 Charge =  0 Multiplicity = 1

                         Standard orientation:
 ---------------------------------------------------------------------
 Center     Atomic      Atomic             Coordinates (Angstroms)
 Number     Number       Type             X           Y           Z
 ---------------------------------------------------------------------
      1          7           0       -0.743596   -0.985606    0.000000
      2          1           0       -0.013745    2.106764    0.000000
      3          6           0        1.118721    0.300286    0.000000
      4          1           0        2.114318    0.699726    0.000000
      5          6           0        0.637050   -0.982979    0.000000
      6          1           0        1.197563   -1.898834    0.000000
      7          1           0       -2.094862    0.659304    0.000000
      8          6           0       -1.088788    0.282543    0.000000
      9          7           0        0.000000    1.104740    0.000000
 ---------------------------------------------------------------------

 SCF Done:  E(RHF) =  -224.831154347     A.U. after    1 cycles
 E2 =    -0.7604428654D+00 EUMP2 =    -0.22559159721284D+03
 SCF Done:  E(RHF) =  -224.831161365     A.U. after    8 cycles
 E2 =    -0.7604437741D+00 EUMP2 =    -0.22559160513893D+03
 SCF Done:  E(RHF) =  -224.831145507     A.U. after    9 cycles
 E2 =    -0.7604420495D+00 EUMP2 =    -0.22559158755671D+03
 SCF Done:  E(RHF) =  -224.831208677     A.U. after    9 cycles
 E2 =    -0.7603671094D+00 EUMP2 =    -0.22559157578656D+03
 SCF Done:  E(RHF) =  -224.831097698     A.U. after   10 cycles
 E2 =    -0.7605187158D+00 EUMP2 =    -0.22559161641399D+03
 SCF Done:  E(RHF) =  -224.831154114     A.U. after    7 cycles
 E2 =    -0.7604429291D+00 EUMP2 =    -0.22559159704264D+03
 E2 =    -0.7604438974D+00 EUMP2 =    -0.22559159753701D+03
 E2 =    -0.7604418817D+00 EUMP2 =    -0.22559159667593D+03
 E2 =    -0.7604698943D+00 EUMP2 =    -0.22559160549964D+03
 E2 =    -0.7604158565D+00 EUMP2 =    -0.22559158710345D+03
 E2 =    -0.7604428780D+00 EUMP2 =    -0.22559159719535D+03
 E2 =    -0.7604654850D+00 EUMP2 =    -0.22559159695545D+03
 E2 =    -0.7604203767D+00 EUMP2 =    -0.22559159442190D+03
 E2 =    -0.7604775518D+00 EUMP2 =    -0.22559160774574D+03
 E2 =    -0.7604082592D+00 EUMP2 =    -0.22559158416347D+03
 E2 =    -0.7604429688D+00 EUMP2 =    -0.22559159705805D+03
 E2 =    -0.7604475041D+00 EUMP2 =    -0.22559159839473D+03
 E2 =    -0.7604382520D+00 EUMP2 =    -0.22559159549839D+03
 E2 =    -0.7604349041D+00 EUMP2 =    -0.22559159408533D+03
 E2 =    -0.7604508454D+00 EUMP2 =    -0.22559159924121D+03
 E2 =    -0.7604428787D+00 EUMP2 =    -0.22559159717275D+03
 E2 =    -0.7604342453D+00 EUMP2 =    -0.22559159367056D+03
 E2 =    -0.7604515129D+00 EUMP2 =    -0.22559159947898D+03
 E2 =    -0.7604473076D+00 EUMP2 =    -0.22559159861303D+03
 E2 =    -0.7604384406D+00 EUMP2 =    -0.22559159544433D+03
 E2 =    -0.7604428809D+00 EUMP2 =    -0.22559159717632D+03
 SCF Done:  E(RHF) =  -224.831187096     A.U. after    9 cycles
 E2 =    -0.7604001053D+00 EUMP2 =    -0.22559158720128D+03
 SCF Done:  E(RHF) =  -224.831118278     A.U. after    9 cycles
 E2 =    -0.7604858107D+00 EUMP2 =    -0.22559160408852D+03
 SCF Done:  E(RHF) =  -224.831121858     A.U. after    9 cycles
 E2 =    -0.7604901618D+00 EUMP2 =    -0.22559161201928D+03
 SCF Done:  E(RHF) =  -224.831184188     A.U. after   10 cycles
 E2 =    -0.7603955766D+00 EUMP2 =    -0.22559157976500D+03
 SCF Done:  E(RHF) =  -224.831154015     A.U. after    8 cycles
 E2 =    -0.7604429929D+00 EUMP2 =    -0.22559159700789D+03
 SCF Done:  E(RHF) =  -224.831140057     A.U. after    8 cycles
 E2 =    -0.7604614040D+00 EUMP2 =    -0.22559160146139D+03
 SCF Done:  E(RHF) =  -224.831166234     A.U. after    9 cycles
 E2 =    -0.7604243900D+00 EUMP2 =    -0.22559159062369D+03
 SCF Done:  E(RHF) =  -224.831142577     A.U. after    8 cycles
 E2 =    -0.7604439388D+00 EUMP2 =    -0.22559158651560D+03
 SCF Done:  E(RHF) =  -224.831162293     A.U. after    9 cycles
 E2 =    -0.7604419645D+00 EUMP2 =    -0.22559160425716D+03
 SCF Done:  E(RHF) =  -224.831154162     A.U. after    7 cycles
 E2 =    -0.7604429332D+00 EUMP2 =    -0.22559159709557D+03

 Alpha  occ. eigenvalues --  -15.63423 -15.55589 -11.30287 -11.26905 -11.24908
 Alpha  occ. eigenvalues --   -1.34546  -1.17062  -1.01210  -0.83306  -0.80316
 Alpha  occ. eigenvalues --   -0.76292  -0.61255  -0.60643  -0.59841  -0.57326
 Alpha  occ. eigenvalues --   -0.43796  -0.40013  -0.32263
 Alpha virt. eigenvalues --    0.06348   0.08142   0.09646   0.09998   0.10967
 Alpha virt. eigenvalues --    0.11769   0.13435   0.14412   0.15540   0.15914
 Alpha virt. eigenvalues --    0.19495   0.20009   0.21249   0.22201   0.23717

 Mulliken atomic charges:
              1
     1  N   -0.334998
     2  H    0.326866
     3  C   -0.075772
     4  H    0.168983
     5  C   -0.092230
     6  H    0.149925
     7  H    0.156823
     8  C    0.114833
     9  N   -0.414430
 Sum of Mulliken atomic charges =   0.00000

 Dipole moment (field-independent basis, Debye):
    X=              1.2506    Y=              3.7685    Z=             -0.0013  Tot=              3.9706
 Quadrupole moment (field-independent basis, Debye-Ang):
   XX=            -27.1780   YY=            -26.4157   ZZ=            -32.6901
   XY=             -3.6057   XZ=             -0.0001   YZ=             -0.0032

                     1                      2                      3
                    A"                     A"                     A"
 Frequencies --   470.2450               628.3469               674.9010
 Red. masses --     1.6820                 2.8550                 2.9624
 Frc consts  --     0.2191                 0.6641                 0.7950
 IR Inten    --    93.8225                22.0382                 2.8053

                     4                      5                      6
                    A"                     A"                     A"
 Frequencies --   722.8020               818.5711               841.7309
 Red. masses --     1.1952                 1.2512                 1.2268
 Frc consts  --     0.3679                 0.4939                 0.5121
 IR Inten    --    42.9219                53.9696                 7.5426

                     7                      8                      9
                    A'                     A'                     A'
 Frequencies --   923.3223               959.0235              1110.8395
 Red. masses --     5.6381                 4.7846                 1.5769
 Frc consts  --     2.8320                 2.5927                 1.1465
 IR Inten    --     4.8825                 2.2000                39.9352

                    10                     11                     12
                    A'                     A'                     A'
 Frequencies --  1136.4985              1187.8555              1191.6097
 Red. masses --     1.4870                 1.7383                 3.1549
 Frc consts  --     1.1316                 1.4451                 2.6394
 IR Inten    --    17.3422                 1.0384                 7.8862

                    13                     14                     15
                    A'                     A'                     A'
 Frequencies --  1326.3900              1421.3436              1510.8290
 Red. masses --     1.4186                 3.0281                 3.0685
 Frc consts  --     1.4704                 3.6043                 4.1267
 IR Inten    --     1.0159                 7.8026                21.9384

                    16                     17                     18
                    A'                     A'                     A'
 Frequencies --  1567.6565              1620.8708              3359.0041
 Red. masses --     3.1733                 3.3959                 1.0919
 Frc consts  --     4.5948                 5.2566                 7.2588
 IR Inten    --    29.7799                11.7469                 3.7054

                    19                     20                     21
                    A'                     A'                     A'
 Frequencies --  3363.2616              3385.9559              3798.4244
 Red. masses --     1.0972                 1.1057                 1.0821
 Frc consts  --     7.3122                 7.4686                 9.1982
 IR Inten    --     0.7775                 1.3274                82.1786

 - Thermochemistry -
 -------------------
 Temperature   298.150 Kelvin.  Pressure   1.00000 Atm.
 Atom     1 has atomic number  7 and mass  14.00307

 Molecular mass:    68.03745 amu.
 Principal axes and moments of inertia in atomic units:
                           1         2         3
     Eigenvalues --   184.84262 192.04858 376.89120
           X            0.47128   0.88198   0.00000
           Y            0.88198  -0.47128   0.00000
           Z            0.00000   0.00000   1.00000
 This molecule is an asymmetric top.
 Rotational symmetry number  1.
 Rotational temperatures (Kelvin)      0.46858     0.45100     0.22981
 Rotational constants (GHZ):           9.76366     9.39732     4.78849
 Zero-point vibrational energy     191519.0 (Joules/Mol)
                                   45.77415 (Kcal/Mol)
 Warning -- explicit consideration of   1 degrees of freedom as
           vibrations may cause significant error
 Vibrational temperatures:    676.58   904.05   971.03  1039.95  1177.74
          (Kelvin)           1211.06  1328.45  1379.82  1598.25  1635.17
                             1709.06  1714.46  1908.38  2044.99  2173.74
                             2255.51  2332.07  4832.85  4838.98  4871.63
                             5465.08

 Zero-point correction=                           0.072946 (Hartree/Particle)
 Thermal correction to Energy=                    0.076739
 Thermal correction to Enthalpy=                  0.077683
 Thermal correction to Gibbs Free Energy=         0.046653
 Sum of electronic and zero-point Energies=           -225.532293
 Sum of electronic and thermal Energies=              -225.528499
 Sum of electronic and thermal Enthalpies=            -225.527555
 Sum of electronic and thermal Free Energies=         -225.558585

                     E (Thermal)             CV                S
                      KCal/Mol        Cal/Mol-Kelvin    Cal/Mol-Kelvin
 Total                   48.154             13.371             65.309
 Electronic               0.000              0.000              0.000
 Translational            0.889              2.981             38.570
 Rotational               0.889              2.981             24.107
 Vibrational             46.377              7.409              2.631
 Vibration     1          0.827              1.316              0.737

 Optimization completed.
    -- Stationary point found.
 Normal termination of Gaussian 09 at Fri Feb  1 03:33:13 2013.
