 Gaussian 09, Revision B.01,
 Gaussian 09:  EM64L-G09RevB.01 12-Aug-2010

 ---
 #G4
 ---
 1/14=-1,18=20,19=15,26=3,38=1/1,3;
 2/9=110,12=2,17=6,18=5,40=1/2;
 3/5=35,7=104,11=2,16=1,25=1,30=1,71=1,74=-5/1,2,3;
 4//1;
 5/5=2,38=5/2;

 ---------------------------------------------------------------------
 1himidaz 1H-Imidazole casno=288324 state=1 config=1 method=74 basis=0
 ---------------------------------------------------------------------
 Symbolic Z-matrix:
 Charge =  0 Multiplicity = 1

 SCF Done:  E(RB3LYP) =  -226.230414714     A.U. after   14 cycles
 SCF Done:  E(RB3LYP) =  -226.231952218     A.U. after   11 cycles
 SCF Done:  E(RB3LYP) =  -226.231975806     A.U. after    9 cycles
 SCF Done:  E(RB3LYP) =  -226.231979868     A.U. after    8 cycles
 Optimization completed.
    -- Stationary point found.
 Normal termination of Gaussian 09 at Thu Dec  8 10:54:45 2011.

 ----------------------------------------------------------
 #N Geom=AllCheck Guess=TCheck SCRF=Check B3LYP/GTBas3 Freq
 ----------------------------------------------------------

 1himidaz 1H-Imidazole casno=288324 state=1 config=1 method=74 basis=0
 ---------------------------------------------------------------------
 Redundant internal coordinates taken from checkpoint file:
 /tmp/rdj3/g09-21896/Gau-21948.chk
 Charge =  0 Multiplicity = 1

 SCF Done:  E(RB3LYP) =  -226.231979868     A.U. after    1 cycles

  Exact polarizability:  49.267  -1.453  47.179   0.000   0.000  20.915
 Approx polarizability:  78.861   1.018  81.199   0.000   0.000  32.832

                     1                      2                      3
                    A"                     A"                     A"
 Frequencies --   526.4002               647.6537               686.0002
 Red. masses --     1.5491                 2.3695                 3.0104
 Frc consts  --     0.2529                 0.5856                 0.8347
 IR Inten    --    82.8680                12.6678                 3.0141

                     4                      5                      6
                    A"                     A"                     A"
 Frequencies --   729.6980               813.9076               860.9696
 Red. masses --     1.2185                 1.3363                 1.3104
 Frc consts  --     0.3823                 0.5216                 0.5723
 IR Inten    --    20.9224                26.9886                 5.1386

                     7                      8                      9
                    A'                     A'                     A'
 Frequencies --   905.5722               944.9550              1078.8840
 Red. masses --     5.3954                 4.4972                 1.6109
 Frc consts  --     2.6069                 2.3660                 1.1047
 IR Inten    --     9.8851                 1.2467                33.9937

                    10                     11                     12
                    A'                     A'                     A'
 Frequencies --  1101.5881              1152.7704              1164.2488
 Red. masses --     1.5252                 1.3567                 6.6180
 Frc consts  --     1.0905                 1.0622                 5.2853
 IR Inten    --    15.5406                 1.9332                 5.3168

                    13                     14                     15
                    A'                     A'                     A'
 Frequencies --  1286.6560              1368.3909              1434.9015
 Red. masses --     1.3637                 3.4220                 3.0311
 Frc consts  --     1.3301                 3.7752                 3.6770
 IR Inten    --     0.3877                 7.2251                15.0380

                    16                     17                     18
                    A'                     A'                     A'
 Frequencies --  1508.4973              1562.1496              3250.2978
 Red. masses --     3.1445                 3.2684                 1.0914
 Frc consts  --     4.2159                 4.6993                 6.7932
 IR Inten    --    15.8784                13.2242                 6.5790

                    19                     20                     21
                    A'                     A'                     A'
 Frequencies --  3253.4569              3283.2817              3669.0986
 Red. masses --     1.0961                 1.1042                 1.0811
 Frc consts  --     6.8358                 7.0131                 8.5749
 IR Inten    --     0.6023                 2.0894                49.8002

 - Thermochemistry -
 -------------------
 Temperature   298.150 Kelvin.  Pressure   1.00000 Atm.
 Atom     1 has atomic number  7 and mass  14.00307

 Molecular mass:    68.03745 amu.
 Principal axes and moments of inertia in atomic units:
                           1         2         3
     Eigenvalues --   184.68347 191.72317 376.40664
           X            0.46411   0.88578   0.00000
           Y            0.88578  -0.46411   0.00000
           Z            0.00000   0.00000   1.00000
 This molecule is an asymmetric top.
 Rotational symmetry number  1.
 Rotational temperatures (Kelvin)      0.46899     0.45176     0.23011
 Rotational constants (GHZ):           9.77208     9.41327     4.79466
 Zero-point vibrational energy     186793.2 (Joules/Mol)
                                   44.64464 (Kcal/Mol)
 Warning -- explicit consideration of   1 degrees of freedom as
           vibrations may cause significant error
 Vibrational temperatures:    757.37   931.83   987.00  1049.87  1171.03
          (Kelvin)           1238.74  1302.91  1359.58  1552.27  1584.94
                             1658.58  1675.09  1851.21  1968.81  2064.50
                             2170.39  2247.58  4676.45  4680.99  4723.90
                             5279.01

 Zero-point correction=                           0.071146 (Hartree/Particle)
 Thermal correction to Energy=                    0.074901
 Thermal correction to Enthalpy=                  0.075845
 Thermal correction to Gibbs Free Energy=         0.044883
 Sum of electronic and zero-point Energies=           -226.160834
 Sum of electronic and thermal Energies=              -226.157079
 Sum of electronic and thermal Enthalpies=            -226.156135
 Sum of electronic and thermal Free Energies=         -226.187097

                     E (Thermal)             CV                S
                      KCal/Mol        Cal/Mol-Kelvin    Cal/Mol-Kelvin
 Total                   47.001             13.377             65.165
 Electronic               0.000              0.000              0.000
 Translational            0.889              2.981             38.570
 Rotational               0.889              2.981             24.103
 Vibrational             45.224              7.415              2.492
 Vibration     1          0.881              1.192              0.595

 Optimization completed.
    -- Stationary point found.
 Normal termination of Gaussian 09 at Thu Dec  8 10:55:55 2011.

 -----------------------------------------------------------------
 #N Geom=AllCheck Guess=TCheck SCRF=Check CCSD(T,E4T,FrzG4)/GTBas1
 -----------------------------------------------------------------

 1himidaz 1H-Imidazole casno=288324 state=1 config=1 method=74 basis=0
 ---------------------------------------------------------------------
 Redundant internal coordinates taken from checkpoint file:
 /tmp/rdj3/g09-21896/Gau-21948.chk
 Charge =  0 Multiplicity = 1

 SCF Done:  E(RHF) =  -224.812670532     A.U. after   14 cycles
 E2 =    -0.7062653140D+00 EUMP2 =    -0.22551893584586D+03
 CCSD(T)= -0.22557080090D+03
 P4SDTQ=-225.5736687\MP4SDQ=-225.5410143\CCSD=-225.5408172\CCSD(T)=-225
 Normal termination of Gaussian 09 at Thu Dec  8 10:56:51 2011.

 ---------------------------------------------------------
 #N Geom=AllCheck Guess=TCheck SCRF=Check MP4=FrzG4/GTBas2
 ---------------------------------------------------------

 1himidaz 1H-Imidazole casno=288324 state=1 config=1 method=74 basis=0
 ---------------------------------------------------------------------
 Redundant internal coordinates taken from checkpoint file:
 /tmp/rdj3/g09-21896/Gau-21948.chk
 Charge =  0 Multiplicity = 1

 SCF Done:  E(RHF) =  -224.821325148     A.U. after   13 cycles
 E2 =    -0.7139791114D+00 EUMP2 =    -0.22553530425898D+03
 Normal termination of Gaussian 09 at Thu Dec  8 10:57:14 2011.

 ---------------------------------------------------------
 #N Geom=AllCheck Guess=TCheck SCRF=Check MP4=FrzG4/GTBas3
 ---------------------------------------------------------

 1himidaz 1H-Imidazole casno=288324 state=1 config=1 method=74 basis=0
 ---------------------------------------------------------------------
 Redundant internal coordinates taken from checkpoint file:
 /tmp/rdj3/g09-21896/Gau-21948.chk
 Charge =  0 Multiplicity = 1

 SCF Done:  E(RHF) =  -224.837542032     A.U. after   12 cycles
 E2 =    -0.8396129165D+00 EUMP2 =    -0.22567715494860D+03
 Normal termination of Gaussian 09 at Thu Dec  8 10:59:56 2011.

 -----------------------------------------------------------
 #N Geom=AllCheck Guess=TCheck SCRF=Check MP2=Full/GTLargeXP
 -----------------------------------------------------------

 1himidaz 1H-Imidazole casno=288324 state=1 config=1 method=74 basis=0
 ---------------------------------------------------------------------
 Redundant internal coordinates taken from checkpoint file:
 /tmp/rdj3/g09-21896/Gau-21948.chk
 Charge =  0 Multiplicity = 1

 SCF Done:  E(RHF) =  -224.893489194     A.U. after   13 cycles
 E2 =    -0.1104948111D+01 EUMP2 =    -0.22599843730547D+03
 Normal termination of Gaussian 09 at Thu Dec  8 11:01:35 2011.
 SCF Done:  E(RHF) =  -224.910243179     A.U. after    8 cycles
 Normal termination of Gaussian 09 at Thu Dec  8 11:05:02 2011.

                         Standard orientation:
 ---------------------------------------------------------------------
 Center     Atomic      Atomic             Coordinates (Angstroms)
 Number     Number       Type             X           Y           Z
 ---------------------------------------------------------------------
      1          7           0       -0.741747   -0.983943    0.000000
      2          1           0       -0.008473    2.109166    0.000000
      3          6           0        1.118100    0.298563    0.000000
      4          1           0        2.114595    0.707276    0.000000
      5          6           0        0.635250   -0.982611    0.000000
      6          1           0        1.197063   -1.904097    0.000000
      7          1           0       -2.098218    0.665163    0.000000
      8          6           0       -1.088807    0.281884    0.000000
      9          7           0        0.000000    1.103297    0.000000
 ---------------------------------------------------------------------

 SCF Done:  E(RHF) =  -224.913639931     A.U. after    8 cycles

 The electronic state is 1-A'.
 Alpha  occ. eigenvalues --  -15.62086 -15.54357 -11.29640 -11.26085 -11.24287
 Alpha  occ. eigenvalues --   -1.34093  -1.16682  -1.00765  -0.82919  -0.79994
 Alpha  occ. eigenvalues --   -0.75885  -0.61040  -0.60254  -0.59939  -0.57105
 Alpha  occ. eigenvalues --   -0.43823  -0.40148  -0.32233
 Alpha virt. eigenvalues --    0.02953   0.04202   0.05181   0.05538   0.06278
 Alpha virt. eigenvalues --    0.06850   0.08232   0.08845   0.08867   0.09493
 Alpha virt. eigenvalues --    0.11347   0.13877   0.14290   0.15891   0.16266

 Mulliken atomic charges:
              1
     1  N   -0.490535
     2  H    0.367947
     3  C   -0.161859
     4  H    0.212303
     5  C   -0.083808
     6  H    0.208593
     7  H    0.217219
     8  C    0.118417
     9  N   -0.388277
 Sum of Mulliken atomic charges =   0.00000

 Dipole moment (field-independent basis, Debye):
    X=              1.0549    Y=              3.6952    Z=              0.0000  Tot=              3.8428
 Quadrupole moment (field-independent basis, Debye-Ang):
   XX=            -26.6713   YY=            -25.9280   ZZ=            -32.6122
   XY=             -3.5648   XZ=              0.0000   YZ=              0.0000

 Normal termination of Gaussian 09 at Thu Dec  8 11:34:42 2011.
