 Gaussian 09, Revision B.01,
 Gaussian 09:  EM64L-G09RevB.01 12-Aug-2010

 -----------------------
 #TPSSh/cc-pVTZ opt freq
 -----------------------
 ---------------------------------------------------------------------
 1himidaz 1H-Imidazole casno=288324 state=1 config=1 method=75 basis=6
 ---------------------------------------------------------------------
 Symbolic Z-matrix:
 Charge =  0 Multiplicity = 1

 SCF Done:  E(RTPSSh) =  -226.310281358     A.U. after   14 cycles
 SCF Done:  E(RTPSSh) =  -226.311724284     A.U. after   11 cycles
 SCF Done:  E(RTPSSh) =  -226.311750732     A.U. after    8 cycles
 SCF Done:  E(RTPSSh) =  -226.311755201     A.U. after    7 cycles
 Optimization completed.
    -- Stationary point found.
 Normal termination of Gaussian 09 at Wed Feb 13 10:00:25 2013.

 -------------------------------------------------------------------
 #T Geom=AllCheck Guess=TCheck SCRF=Check GenChk RTPSSh/CC-pVTZ Freq
 -------------------------------------------------------------------

 1himidaz 1H-Imidazole casno=288324 state=1 config=1 method=75 basis=6
 ---------------------------------------------------------------------
 Redundant internal coordinates taken from checkpoint file:
 /tmp/rdj3/g09-3836/Gau-3880.chk
 Charge =  0 Multiplicity = 1

                         Standard orientation:
 ---------------------------------------------------------------------
 Center     Atomic      Atomic             Coordinates (Angstroms)
 Number     Number       Type             X           Y           Z
 ---------------------------------------------------------------------
      1          7           0       -0.741089   -0.983959    0.000000
      2          1           0       -0.007276    2.109241    0.000000
      3          6           0        1.117642    0.298628    0.000000
      4          1           0        2.114123    0.705863    0.000000
      5          6           0        0.635037   -0.981897    0.000000
      6          1           0        1.195820   -1.902680    0.000000
      7          1           0       -2.097991    0.662975    0.000000
      8          6           0       -1.088854    0.282281    0.000000
      9          7           0        0.000000    1.102605    0.000000
 ---------------------------------------------------------------------

 SCF Done:  E(RTPSSh) =  -226.311755201     A.U. after    1 cycles

 The electronic state is 1-A'.
 Alpha  occ. eigenvalues --  -14.30792 -14.22653 -10.16245 -10.14034 -10.12197
 Alpha  occ. eigenvalues --   -0.99103  -0.84787  -0.72290  -0.59716  -0.57077
 Alpha  occ. eigenvalues --   -0.54483  -0.42224  -0.41994  -0.41551  -0.38834
 Alpha  occ. eigenvalues --   -0.27033  -0.25248  -0.22091
 Alpha virt. eigenvalues --    0.01036   0.02702   0.04805   0.07711   0.08267
 Alpha virt. eigenvalues --    0.10068   0.16391   0.18446   0.19720   0.22469
 Alpha virt. eigenvalues --    0.28113   0.28417   0.30998   0.33547   0.33722

 Mulliken atomic charges:
              1
     1  N   -0.224342
     2  H    0.152553
     3  C   -0.113881
     4  H    0.104040
     5  C   -0.080793
     6  H    0.100768
     7  H    0.103277
     8  C    0.000050
     9  N   -0.041673
 Sum of Mulliken atomic charges =   0.00000

 Dipole moment (field-independent basis, Debye):
    X=              1.0852    Y=              3.5138    Z=              0.0000  Tot=              3.6775
  Exact polarizability:  53.330  -0.967  50.938   0.000   0.000  27.018
 Approx polarizability:  89.194   1.591  90.787   0.000   0.000  41.723
 Calling FoFJK, ICntrl=    100127 FMM=F ISym2X=1 I1Cent= 0 IOpClX= 0 NMat=1 NMatS=1 NMatT=0.
 Full mass-weighted force constant matrix:
 Low frequencies ---  -21.5252  -10.9208    0.0006    0.0007    0.0009   13.6369
 Low frequencies ---  532.0271  645.1282  680.4161
 Harmonic frequencies (cm**-1), IR intensities (KM/Mole), Raman scattering
 activities (A**4/AMU), depolarization ratios for plane and unpolarized
 incident light, reduced masses (AMU), force constants (mDyne/A),
 and normal coordinates:
                     1                      2                      3
                    A"                     A"                     A"
 Frequencies --   532.0263               645.1281               680.4158
 Red. masses --     1.5943                 2.2397                 2.9143
 Frc consts  --     0.2659                 0.5492                 0.7949
 IR Inten    --    80.1674                12.6432                 2.6133

                     4                      5                      6
                    A"                     A"                     A"
 Frequencies --   733.9164               812.3667               869.8419
 Red. masses --     1.2313                 1.3379                 1.3236
 Frc consts  --     0.3908                 0.5202                 0.5901
 IR Inten    --    32.0412                38.6202                 5.7993

                     7                      8                      9
                    A'                     A'                     A'
 Frequencies --   894.5371               935.7737              1074.4393
 Red. masses --     5.3307                 4.5133                 1.6245
 Frc consts  --     2.5132                 2.3285                 1.1049
 IR Inten    --     8.8611                 1.6088                36.1757

                    10                     11                     12
                    A'                     A'                     A'
 Frequencies --  1094.6228              1146.4569              1159.8903
 Red. masses --     1.5629                 1.3786                 6.4338
 Frc consts  --     1.1033                 1.0676                 5.0998
 IR Inten    --    16.2547                 2.9831                 4.6163

                    13                     14                     15
                    A'                     A'                     A'
 Frequencies --  1280.4201              1361.5069              1431.3457
 Red. masses --     1.4101                 3.2625                 2.9319
 Frc consts  --     1.3621                 3.5632                 3.5390
 IR Inten    --     0.3350                 6.1114                13.4931

                    16                     17                     18
                    A'                     A'                     A'
 Frequencies --  1501.8380              1554.4746              3236.5838
 Red. masses --     3.0240                 3.1247                 1.0916
 Frc consts  --     4.0186                 4.4486                 6.7376
 IR Inten    --    16.1549                10.2736                 6.3512

                    19                     20                     21
                    A'                     A'                     A'
 Frequencies --  3240.4495              3267.4399              3637.7273
 Red. masses --     1.0965                 1.1045                 1.0814
 Frc consts  --     6.7837                 6.9476                 8.4311
 IR Inten    --     0.8222                 2.5824                43.5933

 Optimization completed.
    -- Stationary point found.
 Normal termination of Gaussian 09 at Wed Feb 13 10:03:02 2013.
