 Gaussian 09, Revision B.01,
 Gaussian 09:  EM64L-G09RevB.01 12-Aug-2010

 ------------------------
 #TPSSh/6-31G(d) opt freq
 ------------------------
 ---------------------------------------------------------------------
 1himidaz 1H-Imidazole casno=288324 state=1 config=1 method=75 basis=1
 ---------------------------------------------------------------------
 Symbolic Z-matrix:
 Charge =  0 Multiplicity = 1

 SCF Done:  E(RTPSSh) =  -226.226870175     A.U. after   14 cycles
 SCF Done:  E(RTPSSh) =  -226.229320617     A.U. after   13 cycles
 SCF Done:  E(RTPSSh) =  -226.229350878     A.U. after    9 cycles
 SCF Done:  E(RTPSSh) =  -226.229355295     A.U. after    9 cycles
 Optimization completed.
    -- Stationary point found.
 Normal termination of Gaussian 09 at Tue Feb  5 18:15:16 2013.

 --------------------------------------------------------------------
 #T Geom=AllCheck Guess=TCheck SCRF=Check GenChk RTPSSh/6-31G(d) Freq
 --------------------------------------------------------------------

 1himidaz 1H-Imidazole casno=288324 state=1 config=1 method=75 basis=1
 ---------------------------------------------------------------------
 Redundant internal coordinates taken from checkpoint file:
 /tmp/rdj3/g09-4782/Gau-4838.chk
 Charge =  0 Multiplicity = 1

                         Standard orientation:
 ---------------------------------------------------------------------
 Center     Atomic      Atomic             Coordinates (Angstroms)
 Number     Number       Type             X           Y           Z
 ---------------------------------------------------------------------
      1          7           0       -0.743647   -0.989672    0.000000
      2          1           0       -0.008082    2.117423    0.000000
      3          6           0        1.121662    0.301178    0.000000
      4          1           0        2.119451    0.712513    0.000000
      5          6           0        0.635654   -0.983307    0.000000
      6          1           0        1.196808   -1.907461    0.000000
      7          1           0       -2.102116    0.663480    0.000000
      8          6           0       -1.090738    0.281524    0.000000
      9          7           0        0.000000    1.106482    0.000000
 ---------------------------------------------------------------------

 SCF Done:  E(RTPSSh) =  -226.229355295     A.U. after    1 cycles

 The electronic state is 1-A'.
 Alpha  occ. eigenvalues --  -14.32247 -14.23760 -10.16975 -10.14793 -10.12823
 Alpha  occ. eigenvalues --   -0.98291  -0.84096  -0.71580  -0.59255  -0.56408
 Alpha  occ. eigenvalues --   -0.53937  -0.41662  -0.41444  -0.40485  -0.38193
 Alpha  occ. eigenvalues --   -0.26048  -0.24357  -0.21091
 Alpha virt. eigenvalues --    0.02277   0.06351   0.07242   0.13369   0.15150
 Alpha virt. eigenvalues --    0.17187   0.21422   0.23543   0.30479   0.34937
 Alpha virt. eigenvalues --    0.44683   0.52090   0.54467   0.55961   0.59161

 Mulliken atomic charges:
              1
     1  N   -0.438535
     2  H    0.348736
     3  C   -0.001335
     4  H    0.177429
     5  C   -0.053612
     6  H    0.160995
     7  H    0.178067
     8  C    0.201520
     9  N   -0.573265
 Sum of Mulliken atomic charges =   0.00000

 Dipole moment (field-independent basis, Debye):
    X=              1.1251    Y=              3.5607    Z=              0.0000  Tot=              3.7342
  Exact polarizability:  48.137  -1.248  46.345   0.000   0.000  17.673
 Approx polarizability:  80.779   2.139  84.271   0.000   0.000  26.779
 Calling FoFJK, ICntrl=    100127 FMM=F ISym2X=1 I1Cent= 0 IOpClX= 0 NMat=1 NMatS=1 NMatT=0.
 Full mass-weighted force constant matrix:
 Low frequencies ---  -20.6122  -15.8420   -6.2885    0.0007    0.0008    0.0011
 Low frequencies ---  509.9496  640.8718  679.3616
 Harmonic frequencies (cm**-1), IR intensities (KM/Mole), Raman scattering
 activities (A**4/AMU), depolarization ratios for plane and unpolarized
 incident light, reduced masses (AMU), force constants (mDyne/A),
 and normal coordinates:
                     1                      2                      3
                    A"                     A"                     A"
 Frequencies --   509.9495               640.8716               679.3615
 Red. masses --     1.6272                 2.5212                 3.0204
 Frc consts  --     0.2493                 0.6101                 0.8213
 IR Inten    --    94.4544                17.3685                 1.5682

                     4                      5                      6
                    A"                     A"                     A"
 Frequencies --   714.2295               791.6029               850.3388
 Red. masses --     1.2106                 1.2836                 1.2745
 Frc consts  --     0.3639                 0.4739                 0.5430
 IR Inten    --    20.9781                40.1214                 8.7763

                     7                      8                      9
                    A'                     A'                     A'
 Frequencies --   891.6004               933.6403              1084.4009
 Red. masses --     5.4442                 4.7679                 1.5892
 Frc consts  --     2.5499                 2.4487                 1.1011
 IR Inten    --     8.4457                 1.7357                32.3612

                    10                     11                     12
                    A'                     A'                     A'
 Frequencies --  1108.1333              1159.7545              1170.9356
 Red. masses --     1.5380                 1.3632                 6.4982
 Frc consts  --     1.1128                 1.0803                 5.2494
 IR Inten    --    19.0735                 3.1402                 4.5172

                    13                     14                     15
                    A'                     A'                     A'
 Frequencies --  1290.0755              1380.1987              1451.9140
 Red. masses --     1.3789                 3.3084                 3.0270
 Frc consts  --     1.3521                 3.7132                 3.7596
 IR Inten    --     0.4547                 8.2066                15.4301

                    16                     17                     18
                    A'                     A'                     A'
 Frequencies --  1519.7067              1571.9318              3267.8215
 Red. masses --     3.1489                 3.1634                 1.0913
 Frc consts  --     4.2848                 4.6054                 6.8661
 IR Inten    --    18.9679                11.4888                 8.6270

                    19                     20                     21
                    A'                     A'                     A'
 Frequencies --  3275.7478              3299.1585              3634.2397
 Red. masses --     1.0961                 1.1040                 1.0813
 Frc consts  --     6.9297                 7.0796                 8.4146
 IR Inten    --     3.9966                 4.3087                36.6169

 Optimization completed.
    -- Stationary point found.
 Normal termination of Gaussian 09 at Tue Feb  5 18:15:32 2013.
