 Gaussian 09, Revision B.01,
 Gaussian 09:  EM64L-G09RevB.01 12-Aug-2010

 ---------------------------
 #TPSSh/6-31+G(d,p) opt freq
 ---------------------------
 ---------------------------------------------------------------------
 1himidaz 1H-Imidazole casno=288324 state=1 config=1 method=75 basis=4
 ---------------------------------------------------------------------
 Symbolic Z-matrix:
 Charge =  0 Multiplicity = 1

 SCF Done:  E(RTPSSh) =  -226.244561292     A.U. after   12 cycles
 SCF Done:  E(RTPSSh) =  -226.247116945     A.U. after   10 cycles
 SCF Done:  E(RTPSSh) =  -226.247150304     A.U. after    9 cycles
 SCF Done:  E(RTPSSh) =  -226.247155588     A.U. after    8 cycles
 Optimization completed.
    -- Stationary point found.
 Normal termination of Gaussian 09 at Thu Feb  7 14:20:27 2013.

 ----------------------------------------------------------------------
 #T Geom=AllCheck Guess=TCheck SCRF=Check GenChk RTPSSh/6-31+G(d,p) Fre
 q
 ----------------------------------------------------------------------

 1himidaz 1H-Imidazole casno=288324 state=1 config=1 method=75 basis=4
 ---------------------------------------------------------------------
 Redundant internal coordinates taken from checkpoint file:
 /tmp/rdj3/g09-13928/Gau-13972.chk
 Charge =  0 Multiplicity = 1

                         Standard orientation:
 ---------------------------------------------------------------------
 Center     Atomic      Atomic             Coordinates (Angstroms)
 Number     Number       Type             X           Y           Z
 ---------------------------------------------------------------------
      1          7           0       -0.742970   -0.988762    0.000000
      2          1           0       -0.009156    2.116911    0.000000
      3          6           0        1.122055    0.301283    0.000000
      4          1           0        2.120779    0.709086    0.000000
      5          6           0        0.636551   -0.985348    0.000000
      6          1           0        1.197768   -1.908259    0.000000
      7          1           0       -2.103890    0.662746    0.000000
      8          6           0       -1.092724    0.282821    0.000000
      9          7           0        0.000000    1.106902    0.000000
 ---------------------------------------------------------------------

 SCF Done:  E(RTPSSh) =  -226.247155588     A.U. after    1 cycles

 The electronic state is 1-A'.
 Alpha  occ. eigenvalues --  -14.33342 -14.25217 -10.18028 -10.15870 -10.13940
 Alpha  occ. eigenvalues --   -0.99447  -0.85231  -0.72644  -0.60136  -0.57396
 Alpha  occ. eigenvalues --   -0.54777  -0.42585  -0.42349  -0.41588  -0.39193
 Alpha  occ. eigenvalues --   -0.27281  -0.25635  -0.22284
 Alpha virt. eigenvalues --   -0.00451   0.00273   0.02591   0.03729   0.03759
 Alpha virt. eigenvalues --    0.05248   0.06070   0.06170   0.07834   0.09654
 Alpha virt. eigenvalues --    0.11130   0.11320   0.12228   0.14910   0.16320

 Mulliken atomic charges:
              1
     1  N   -0.268126
     2  H    0.319437
     3  C   -0.112886
     4  H    0.167816
     5  C   -0.115259
     6  H    0.152223
     7  H    0.160941
     8  C    0.028690
     9  N   -0.332835
 Sum of Mulliken atomic charges =   0.00000

 Dipole moment (field-independent basis, Debye):
    X=              1.1929    Y=              3.6665    Z=              0.0000  Tot=              3.8557
  Exact polarizability:  54.874   0.188  53.085   0.000   0.000  30.732
 Approx polarizability:  88.411   3.094  91.489   0.000   0.000  43.425
 Calling FoFJK, ICntrl=    100127 FMM=F ISym2X=1 I1Cent= 0 IOpClX= 0 NMat=1 NMatS=1 NMatT=0.
 Full mass-weighted force constant matrix:
 Low frequencies ---  -18.9980  -11.9628   -0.0014   -0.0008   -0.0004    9.2703
 Low frequencies ---  523.3712  636.2449  673.0821
 Harmonic frequencies (cm**-1), IR intensities (KM/Mole), Raman scattering
 activities (A**4/AMU), depolarization ratios for plane and unpolarized
 incident light, reduced masses (AMU), force constants (mDyne/A),
 and normal coordinates:
                     1                      2                      3
                    A"                     A"                     A"
 Frequencies --   523.3705               636.2446               673.0819
 Red. masses --     1.6610                 2.2732                 2.9835
 Frc consts  --     0.2681                 0.5422                 0.7964
 IR Inten    --    91.0527                16.8089                 2.0893

                     4                      5                      6
                    A"                     A"                     A"
 Frequencies --   722.9384               800.7168               859.6230
 Red. masses --     1.2246                 1.3030                 1.2969
 Frc consts  --     0.3771                 0.4922                 0.5646
 IR Inten    --    38.8884                52.9118                 8.6420

                     7                      8                      9
                    A'                     A'                     A'
 Frequencies --   890.2340               930.4669              1079.2206
 Red. masses --     5.4440                 4.7265                 1.5970
 Frc consts  --     2.5420                 2.4110                 1.0959
 IR Inten    --     6.2562                 2.2522                36.3299

                    10                     11                     12
                    A'                     A'                     A'
 Frequencies --  1101.0459              1152.6738              1166.2066
 Red. masses --     1.5436                 1.3823                 6.1595
 Frc consts  --     1.1025                 1.0821                 4.9356
 IR Inten    --    22.7474                 4.4230                 3.9465

                    13                     14                     15
                    A'                     A'                     A'
 Frequencies --  1284.0275              1373.2105              1440.6593
 Red. masses --     1.3680                 3.3871                 2.9728
 Frc consts  --     1.3289                 3.7631                 3.6352
 IR Inten    --     0.4622                 6.7930                15.4290

                    16                     17                     18
                    A'                     A'                     A'
 Frequencies --  1507.3742              1560.5865              3268.2663
 Red. masses --     3.1286                 3.1707                 1.0911
 Frc consts  --     4.1883                 4.5496                 6.8668
 IR Inten    --    23.0232                10.8039                 4.9174

                    19                     20                     21
                    A'                     A'                     A'
 Frequencies --  3275.8581              3296.5724              3652.1165
 Red. masses --     1.0962                 1.1045                 1.0817
 Frc consts  --     6.9310                 7.0721                 8.5009
 IR Inten    --     1.8002                 2.4050                47.3258

 Optimization completed.
    -- Stationary point found.
 Normal termination of Gaussian 09 at Thu Feb  7 14:20:56 2013.
