 Gaussian 09, Revision B.01,
 Gaussian 09:  EM64L-G09RevB.01 12-Aug-2010

 ------------------------------------------------------------------
 #B2PLYP=FULL/6-31G* opt=tight freq=anharm integral(grid=ultrafine)
 ------------------------------------------------------------------

 --------------------------------------------------
 1H imidazole C3H4N2 casno=288324 method=79 basis=1
 --------------------------------------------------
 Symbolic Z-matrix:
 Charge =  0 Multiplicity = 1

 SCF Done:  E(RB2PLYP) =  -225.741209785     A.U. after   13 cycles
 E2(B2PLYP) =    -0.2394613550D+00 E(B2PLYP) =    -0.22598067113999D+03
 SCF Done:  E(RB2PLYP) =  -225.741020007     A.U. after   12 cycles
 E2(B2PLYP) =    -0.2417811742D+00 E(B2PLYP) =    -0.22598280118105D+03
 SCF Done:  E(RB2PLYP) =  -225.741061898     A.U. after    9 cycles
 E2(B2PLYP) =    -0.2417680448D+00 E(B2PLYP) =    -0.22598282994285D+03
 SCF Done:  E(RB2PLYP) =  -225.741062950     A.U. after    9 cycles
 E2(B2PLYP) =    -0.2417710701D+00 E(B2PLYP) =    -0.22598283402019D+03
 SCF Done:  E(RB2PLYP) =  -225.741059832     A.U. after    8 cycles
 E2(B2PLYP) =    -0.2417744216D+00 E(B2PLYP) =    -0.22598283425344D+03
 SCF Done:  E(RB2PLYP) =  -225.741059814     A.U. after    7 cycles
 E2(B2PLYP) =    -0.2417744610D+00 E(B2PLYP) =    -0.22598283427479D+03
 Optimization completed.
    -- Stationary point found.
 Normal termination of Gaussian 09 at Thu Jul 19 09:56:20 2012.

 ----------------------------------------------------------------------
 #N Geom=AllCheck Guess=TCheck SCRF=Check GenChk RB2PLYP-Full/6-31G(d)
 Freq
 ----------------------------------------------------------------------

 1H imidazole C3H4N2 casno=288324 method=79 basis=1
 --------------------------------------------------
 Redundant internal coordinates taken from checkpoint file:
 /tmp/rdj3/g09-6793/Gau-6837.chk
 Charge =  0 Multiplicity = 1

                         Standard orientation:
 ---------------------------------------------------------------------
 Center     Atomic      Atomic             Coordinates (Angstroms)
 Number     Number       Type             X           Y           Z
 ---------------------------------------------------------------------
      1          7           0       -0.743034   -0.988276    0.000000
      2          1           0       -0.009451    2.114324    0.000000
      3          6           0        1.120180    0.300785    0.000000
      4          1           0        2.118604    0.707424    0.000000
      5          6           0        0.635557   -0.982881    0.000000
      6          1           0        1.198050   -1.904703    0.000000
      7          1           0       -2.100992    0.662412    0.000000
      8          6           0       -1.089899    0.282109    0.000000
      9          7           0        0.000000    1.105485    0.000000
 ---------------------------------------------------------------------

 SCF Done:  E(RB2PLYP) =  -225.741059814     A.U. after    1 cycles
 E2(B2PLYP) =    -0.2417744626D+00 E(B2PLYP) =    -0.22598283427635D+03
 E2(B2PLYP) =    -0.2417744626D+00 E(B2PLYP) =    -0.22598283427635D+03
 SCF Done:  E(RB2PLYP) =  -225.740837511     A.U. after    9 cycles
 E2(B2PLYP) =    -0.2419074490D+00 E(B2PLYP) =    -0.22598274495991D+03
 E2(B2PLYP) =    -0.2419074490D+00 E(B2PLYP) =    -0.22598274495991D+03
 SCF Done:  E(RB2PLYP) =  -225.741097880     A.U. after    9 cycles
 E2(B2PLYP) =    -0.2416430532D+00 E(B2PLYP) =    -0.22598274093288D+03
 E2(B2PLYP) =    -0.2416430532D+00 E(B2PLYP) =    -0.22598274093288D+03
 SCF Done:  E(RB2PLYP) =  -225.740913158     A.U. after    9 cycles
 E2(B2PLYP) =    -0.2418476784D+00 E(B2PLYP) =    -0.22598276083659D+03
 E2(B2PLYP) =    -0.2418476784D+00 E(B2PLYP) =    -0.22598276083659D+03
 E2(B2PLYP) =    -0.2417027011D+00 E(B2PLYP) =    -0.22598275838024D+03
 E2(B2PLYP) =    -0.2417027011D+00 E(B2PLYP) =    -0.22598275838024D+03
 E2(B2PLYP) =    -0.2417262548D+00 E(B2PLYP) =    -0.22598275937488D+03
 E2(B2PLYP) =    -0.2417262548D+00 E(B2PLYP) =    -0.22598275937488D+03
 E2(B2PLYP) =    -0.2418241900D+00 E(B2PLYP) =    -0.22598276208801D+03
 E2(B2PLYP) =    -0.2418241900D+00 E(B2PLYP) =    -0.22598276208801D+03
 SCF Done:  E(RB2PLYP) =  -225.741054512     A.U. after    8 cycles
 E2(B2PLYP) =    -0.2417754557D+00 E(B2PLYP) =    -0.22598282996796D+03
 E2(B2PLYP) =    -0.2417754557D+00 E(B2PLYP) =    -0.22598282996796D+03
 SCF Done:  E(RB2PLYP) =  -225.741054512     A.U. after    9 cycles
 E2(B2PLYP) =    -0.2417754547D+00 E(B2PLYP) =    -0.22598282996695D+03
 E2(B2PLYP) =    -0.2417754547D+00 E(B2PLYP) =    -0.22598282996695D+03
 SCF Done:  E(RB2PLYP) =  -225.741055564     A.U. after    8 cycles
 E2(B2PLYP) =    -0.2417752666D+00 E(B2PLYP) =    -0.22598283083092D+03
 E2(B2PLYP) =    -0.2417752666D+00 E(B2PLYP) =    -0.22598283083092D+03
 SCF Done:  E(RB2PLYP) =  -225.741055564     A.U. after    8 cycles
 E2(B2PLYP) =    -0.2417752657D+00 E(B2PLYP) =    -0.22598283083005D+03
 E2(B2PLYP) =    -0.2417752657D+00 E(B2PLYP) =    -0.22598283083005D+03
 SCF Done:  E(RB2PLYP) =  -225.741056296     A.U. after    8 cycles
 E2(B2PLYP) =    -0.2417748107D+00 E(B2PLYP) =    -0.22598283110662D+03
 E2(B2PLYP) =    -0.2417748107D+00 E(B2PLYP) =    -0.22598283110662D+03
 SCF Done:  E(RB2PLYP) =  -225.741056296     A.U. after    8 cycles
 E2(B2PLYP) =    -0.2417748116D+00 E(B2PLYP) =    -0.22598283110747D+03
 E2(B2PLYP) =    -0.2417748116D+00 E(B2PLYP) =    -0.22598283110747D+03
 SCF Done:  E(RB2PLYP) =  -225.741056639     A.U. after    8 cycles
 E2(B2PLYP) =    -0.2417748283D+00 E(B2PLYP) =    -0.22598283146692D+03
 E2(B2PLYP) =    -0.2417748283D+00 E(B2PLYP) =    -0.22598283146692D+03
 SCF Done:  E(RB2PLYP) =  -225.741056639     A.U. after    8 cycles
 E2(B2PLYP) =    -0.2417748288D+00 E(B2PLYP) =    -0.22598283146738D+03
 E2(B2PLYP) =    -0.2417748288D+00 E(B2PLYP) =    -0.22598283146738D+03
 SCF Done:  E(RB2PLYP) =  -225.741057430     A.U. after    9 cycles
 E2(B2PLYP) =    -0.2417751307D+00 E(B2PLYP) =    -0.22598283256088D+03
 E2(B2PLYP) =    -0.2417751307D+00 E(B2PLYP) =    -0.22598283256088D+03
 SCF Done:  E(RB2PLYP) =  -225.741057430     A.U. after    9 cycles
 E2(B2PLYP) =    -0.2417751301D+00 E(B2PLYP) =    -0.22598283256021D+03
 E2(B2PLYP) =    -0.2417751301D+00 E(B2PLYP) =    -0.22598283256021D+03

 Alpha  occ. eigenvalues --  -14.90791 -14.82404 -10.67787 -10.65036 -10.63024
 Alpha  occ. eigenvalues --   -1.14373  -0.98731  -0.84761  -0.70054  -0.67197
 Alpha  occ. eigenvalues --   -0.64011  -0.50572  -0.50291  -0.49382  -0.46893
 Alpha  occ. eigenvalues --   -0.33182  -0.32431  -0.26310
 Alpha virt. eigenvalues --    0.09708   0.13099   0.14480   0.19461   0.21095
 Alpha virt. eigenvalues --    0.23132   0.29443   0.31139   0.38266   0.41773
 Alpha virt. eigenvalues --    0.54863   0.60055   0.63255   0.66012   0.67725

 Mulliken atomic charges:
              1
     1  N   -0.422484
     2  H    0.352853
     3  C    0.000928
     4  H    0.170243
     5  C   -0.047918
     6  H    0.153000
     7  H    0.169605
     8  C    0.191662
     9  N   -0.567889
 Sum of Mulliken atomic charges =   0.00000

 Dipole moment (field-independent basis, Debye):
    X=              1.1471    Y=              3.6026    Z=             -0.0154  Tot=              3.7809
 Quadrupole moment (field-independent basis, Debye-Ang):
   XX=            -26.2722   YY=            -25.2135   ZZ=            -31.3043
   XY=             -3.1903   XZ=              0.0028   YZ=             -0.0362

  Exact polarizability:  47.077  -1.316  45.406   0.001  -0.020  17.330
 Approx polarizability:  57.106   0.926  60.037   0.000  -0.007  22.478

                     1                      2                      3
                    A"                     A"                     A"
 Frequencies --   503.5575               644.8406               684.8853
 Red. masses --     1.5900                 2.6029                 2.9627
 Frc consts  --     0.2375                 0.6377                 0.8188
 IR Inten    --    99.9133                17.8491                 3.2200

                     4                      5                      6
                    A"                     A"                     A"
 Frequencies --   713.9558               798.3833               847.4581
 Red. masses --     1.2034                 1.3100                 1.2705
 Frc consts  --     0.3614                 0.4920                 0.5376
 IR Inten    --    22.2595                33.9106                 8.3842

                     7                      8                      9
                    A'                     A'                     A'
 Frequencies --   907.7475               946.7933              1092.4871
 Red. masses --     5.5016                 4.7129                 1.5944
 Frc consts  --     2.6710                 2.4891                 1.1212
 IR Inten    --     8.1023                 1.6796                33.7485

                    10                     11                     12
                    A'                     A'                     A'
 Frequencies --  1116.8342              1168.8055              1178.0476
 Red. masses --     1.5151                 1.3660                 6.3201
 Frc consts  --     1.1135                 1.0995                 5.1677
 IR Inten    --    17.8756                 2.5083                 4.7415

                    13                     14                     15
                    A'                     A'                     A'
 Frequencies --  1301.2502              1391.2396              1465.5696
 Red. masses --     1.3885                 3.1984                 3.1530
 Frc consts  --     1.3852                 3.6474                 3.9901
 IR Inten    --     0.6180                 9.3017                18.0356

                    16                     17                     18
                    A'                     A'                     A'
 Frequencies --  1529.7790              1578.3935              3294.3516
 Red. masses --     3.1633                 3.1663                 1.0920
 Frc consts  --     4.3616                 4.6477                 6.9823
 IR Inten    --    17.8181                11.9426                 6.5565

                    19                     20                     21
                    A'                     A'                     A'
 Frequencies --  3298.6933              3323.8490              3675.8211
 Red. masses --     1.0967                 1.1042                 1.0817
 Frc consts  --     7.0309                 7.1873                 8.6115
 IR Inten    --     1.6477                 2.0481                53.1440

 - Thermochemistry -
 -------------------
 Temperature   298.150 Kelvin.  Pressure   1.00000 Atm.
 Atom     1 has atomic number  7 and mass  14.00307

 Molecular mass:    68.03745 amu.
 Principal axes and moments of inertia in atomic units:
                           1         2         3
     Eigenvalues --   185.00883 192.75121 377.76004
           X            0.47081   0.88224   0.00000
           Y            0.88224  -0.47081   0.00000
           Z            0.00000   0.00000   1.00000
 This molecule is an asymmetric top.
 Rotational symmetry number  1.
 Rotational temperatures (Kelvin)      0.46816     0.44936     0.22928
 Rotational constants (GHZ):           9.75489     9.36306     4.77748
 Zero-point vibrational energy     188189.0 (Joules/Mol)
                                   44.97825 (Kcal/Mol)
 Warning -- explicit consideration of   1 degrees of freedom as
           vibrations may cause significant error
 Vibrational temperatures:    724.51   927.78   985.40  1027.22  1148.69
          (Kelvin)           1219.30  1306.04  1362.22  1571.84  1606.87
                             1681.65  1694.95  1872.21  2001.68  2108.63
                             2201.01  2270.95  4739.83  4746.08  4782.27
                             5288.68

 Zero-point correction=                           0.071677 (Hartree/Particle)
 Thermal correction to Energy=                    0.075455
 Thermal correction to Enthalpy=                  0.076400
 Thermal correction to Gibbs Free Energy=         0.045397
 Sum of electronic and zero-point Energies=           -225.911157
 Sum of electronic and thermal Energies=              -225.907379
 Sum of electronic and thermal Enthalpies=            -225.906435
 Sum of electronic and thermal Free Energies=         -225.937438

                     E (Thermal)             CV                S
                      KCal/Mol        Cal/Mol-Kelvin    Cal/Mol-Kelvin
 Total                   47.349             13.425             65.251
 Electronic               0.000              0.000              0.000
 Translational            0.889              2.981             38.570
 Rotational               0.889              2.981             24.114
 Vibrational             45.572              7.463              2.567
 Vibration     1          0.859              1.242              0.649

 Optimization completed.
    -- Stationary point found.
 Normal termination of Gaussian 09 at Thu Jul 19 11:24:54 2012.
