 Gaussian 98, Revision A.4,
 Gaussian 98:  x86-Linux-G98RevA.4 11-Sep-1998

 ----------------------
 #B3LYP/6-31G* OPT FREQ
 ----------------------

 --------------------------------
 1H imidazole C3H4N2 casno=288324
 --------------------------------
 Symbolic Z-matrix:
 Charge =  0 Multiplicity = 1

 SCF Done:  E(RB+HF-LYP) =  -226.212332381     A.U. after   14 cycles
 SCF Done:  E(RB+HF-LYP) =  -226.214525553     A.U. after   12 cycles
 SCF Done:  E(RB+HF-LYP) =  -226.214550760     A.U. after    9 cycles
 SCF Done:  E(RB+HF-LYP) =  -226.214554445     A.U. after    9 cycles
 Optimization completed.
    -- Stationary point found.
 Normal termination of Gaussian 98.

 --------------------------------------------------
 #N Geom=AllCheck Guess=TCheck RB3LYP/6-31G(d) Freq
 --------------------------------------------------

 1H imidazole C3H4N2 casno=288324
 --------------------------------
 Redundant internal coordinates taken from checkpointfile:
 /wrk/rdj3/Gau-1067.chk
 Charge =  0 Multiplicity = 1

                         Standard orientation:
 ---------------------------------------------------------------------
 Center     Atomic     Atomic              Coordinates (Angstroms)
 Number     Number      Type              X           Y           Z
 ---------------------------------------------------------------------
    1          7             0       -0.743068   -0.986882    0.000000
    2          1             0       -0.009262    2.115752    0.000000
    3          6             0        1.120615    0.299914    0.000000
    4          1             0        2.120337    0.707058    0.000000
    5          6             0        0.635756   -0.983477    0.000000
    6          1             0        1.198018   -1.907413    0.000000
    7          1             0       -2.102897    0.662613    0.000000
    8          6             0       -1.090491    0.281288    0.000000
    9          7             0        0.000000    1.106259    0.000000
 ---------------------------------------------------------------------

 SCF Done:  E(RB+HF-LYP) =  -226.214554445     A.U. after    1 cycles

  The electronic state is 1-A'.
 Alpha  occ. eigenvalues --  -14.39190 -14.30681 -10.23569 -10.21249 -10.19286
 Alpha  occ. eigenvalues --   -1.00828  -0.86480  -0.73804  -0.61290  -0.58510
 Alpha  occ. eigenvalues --   -0.55866  -0.43668  -0.43465  -0.42423  -0.40211
 Alpha  occ. eigenvalues --   -0.27650  -0.26248  -0.22512
 Alpha virt. eigenvalues --    0.03332   0.07203   0.07541   0.13391   0.15068
 Alpha virt. eigenvalues --    0.17053   0.22200   0.24151   0.30984   0.35044
 Alpha virt. eigenvalues --    0.45753   0.52063   0.54104   0.56117   0.58769

  Exact polarizability:  47.640  -1.391  45.930   0.000   0.000  17.469
 Approx polarizability:  75.104   1.586  78.461   0.000   0.000  25.942

                     1                      2                      3
                    A"                     A"                     A"
 Frequencies --   503.8740               644.9982               683.4193
 Red. masses --     1.5440                 2.4389                 3.0013
 Frc consts  --     0.2310                 0.5978                 0.8259
 IR Inten    --    98.9474                13.5182                 3.2682
 Raman Activ --     0.0000                 0.0000                 0.0000

                     4                      5                      6
                    A"                     A"                     A"
 Frequencies --   718.3981               799.2969               855.9221
 Red. masses --     1.2157                 1.3308                 1.3041
 Frc consts  --     0.3697                 0.5009                 0.5629
 IR Inten    --    22.4158                31.2368                 5.4056
 Raman Activ --     0.0000                 0.0000                 0.0000

                     7                      8                      9
                    A'                     A'                     A'
 Frequencies --   904.6682               943.8162              1082.3795
 Red. masses --     5.4371                 4.6415                 1.5912
 Frc consts  --     2.6218                 2.4360                 1.0983
 IR Inten    --     8.6372                 1.5350                33.9462
 Raman Activ --     0.0000                 0.0000                 0.0000

                    10                     11                     12
                    A'                     A'                     A'
 Frequencies --  1106.2004              1157.2809              1171.1639
 Red. masses --     1.5270                 1.3568                 6.6434
 Frc consts  --     1.1009                 1.0707                 5.3688
 IR Inten    --    18.2080                 2.2733                 5.4533
 Raman Activ --     0.0000                 0.0000                 0.0000

                    13                     14                     15
                    A'                     A'                     A'
 Frequencies --  1292.8574              1382.0664              1450.7387
 Red. masses --     1.3793                 3.3137                 2.9922
 Frc consts  --     1.3583                 3.7292                 3.7104
 IR Inten    --     0.4750                 8.3147                15.9233
 Raman Activ --     0.0000                 0.0000                 0.0000

                    16                     17                     18
                    A'                     A'                     A'
 Frequencies --  1520.0189              1576.1505              3264.3491
 Red. masses --     3.1894                 3.2554                 1.0920
 Frc consts  --     4.3416                 4.7648                 6.8558
 IR Inten    --    18.9188                12.9301                 8.1921
 Raman Activ --     0.0000                 0.0000                 0.0000

                    19                     20                     21
                    A'                     A'                     A'
 Frequencies --  3269.5138              3297.0674              3651.7673
 Red. masses --     1.0964                 1.1034                 1.0813
 Frc consts  --     6.9051                 7.0672                 8.4956
 IR Inten    --     2.0094                 3.0350                42.9825
 Raman Activ --     0.0000                 0.0000                 0.0000

 - Thermochemistry -
 -------------------
 Temperature   298.150 Kelvin.  Pressure   1.00000 Atm.
 Atom  1 has atomic number  7 and mass  14.00307

 Molecular mass:    68.03745 amu.
 Principal axes and moments of inertia in atomic units:
                           1         2         3
     EIGENVALUES --   185.21888 192.72063 377.93951
           X            0.47203   0.88158   0.00000
           Y            0.88158  -0.47203   0.00000
           Z            0.00000   0.00000   1.00000
 THIS MOLECULE IS AN ASYMMETRIC TOP.
 ROTATIONAL SYMMETRY NUMBER  1.
 ROTATIONAL TEMPERATURES (KELVIN)      0.46763     0.44942     0.22917
 ROTATIONAL CONSTANTS (GHZ)            9.74383     9.36455     4.77521
 Zero-point vibrational energy     187071.7 (Joules/Mol)
                                   44.71122 (Kcal/Mol)
 WARNING-- EXPLICIT CONSIDERATION OF   1 DEGREES OF FREEDOM AS
           VIBRATIONS MAY CAUSE SIGNIFICANT ERROR
 VIBRATIONAL TEMPERATURES:    724.96   928.00   983.28  1033.61  1150.00
          (KELVIN)           1231.47  1301.61  1357.93  1557.29  1591.57
                             1665.06  1685.03  1860.12  1988.47  2087.28
                             2186.96  2267.72  4696.64  4704.07  4743.72
                             5254.05

 Zero-point correction=                           0.071252 (Hartree/Particle)
 Thermal correction to Energy=                    0.075032
 Thermal correction to Enthalpy=                  0.075976
 Thermal correction to Gibbs Free Energy=         0.044970
 Sum of electronic and zero-point Energies=           -226.143303
 Sum of electronic and thermal Energies=              -226.139522
 Sum of electronic and thermal Enthalpies=            -226.138578
 Sum of electronic and thermal Free Energies=         -226.169584

                     E (Thermal)             CV                S
                      KCAL/MOL        CAL/MOL-KELVIN    CAL/MOL-KELVIN
 TOTAL                   47.083             13.458             65.258
 ELECTRONIC               0.000              0.000              0.000
 TRANSLATIONAL            0.889              2.981             38.570
 ROTATIONAL               0.889              2.981             24.116
 VIBRATIONAL             45.306              7.496              2.572
 VIBRATION  1             0.859              1.241              0.649
                       Q            LOG10(Q)             LN(Q)
 TOTAL BOT       0.206681D-20        -20.684700        -47.628282
 TOTAL V=0       0.122647D+13         12.088658         27.835164
 VIB (BOT)       0.225346D-32        -32.647150        -75.172840
 VIB (BOT)  1    0.325058D+00         -0.488039         -1.123752
 VIB (V=0)       0.133724D+01          0.126208          0.290605
 VIB (V=0)  1    0.109637D+01          0.039959          0.092009
 ELECTRONIC      0.100000D+01          0.000000          0.000000
 TRANSLATIONAL   0.220588D+08          7.343582         16.909224
 ROTATIONAL      0.415783D+05          4.618867         10.635335
 ***** Axes restored to original set *****
 -------------------------------------------------------------------
 Center     Atomic                   Forces (Hartrees/Bohr)
 Number     Number              X              Y              Z
 -------------------------------------------------------------------
    1          7          -0.000081688    0.000000000    0.000010272
    2          1           0.000000585    0.000000000    0.000001757
    3          6          -0.000119029    0.000000000   -0.000228869
    4          1          -0.000073502    0.000000000   -0.000044026
    5          6           0.000290525    0.000000000    0.000258342
    6          1          -0.000067590    0.000000000    0.000016567
    7          1           0.000106373    0.000000000    0.000046805
    8          6          -0.000188298    0.000000000   -0.000169386
    9          7           0.000132625    0.000000000    0.000108538
 -------------------------------------------------------------------
 Cartesian Forces:  Max     0.000290525 RMS     0.000112823

 GradGradGradGradGradGradGradGradGradGradGradGradGradGradGradGradGradGrad
 Berny optimization.
 Internal  Forces:  Max     0.000247572 RMS     0.000060277
 Search for a local minimum.
 Step number   1 out of a maximum of  48
 All quantities printed in internal units (Hartrees-Bohrs-Radians)
 Second derivative matrix not updated -- analytic derivatives used.
     Eigenvalues ---    0.00483   0.01051   0.01952   0.02712   0.05927
     Eigenvalues ---    0.06178   0.09903   0.10562   0.11149   0.11979
     Eigenvalues ---    0.23124   0.24570   0.34748   0.37426   0.37710
     Eigenvalues ---    0.38111   0.41217   0.44784   0.47346   0.48069
     Eigenvalues ---    0.582151000.000001000.000001000.000001000.00000
     Eigenvalues --- 1000.000001000.000001000.000001000.000001000.00000
     Eigenvalues --- 1000.000001000.000001000.000001000.000001000.00000
     Eigenvalues --- 1000.000001000.000001000.00000
 Angle between quadratic step and forces=  30.75 degrees.
 Linear search not attempted -- first point.
 Iteration  1 RMS(Cart)=  0.00019074 RMS(Int)=  0.00000005
 Iteration  2 RMS(Cart)=  0.00000006 RMS(Int)=  0.00000001
 Variable       Old X    -DE/DX   Delta X   Delta X   Delta X     New X
                                 (Linear)    (Quad)   (Total)
    R1        2.60561  -0.00012   0.00000  -0.00049  -0.00049   2.60512
    R2        2.48480   0.00003   0.00000   0.00015   0.00015   2.48495
    R3        1.90775   0.00000   0.00000   0.00001   0.00001   1.90775
    R4        2.03986   0.00009   0.00000   0.00020   0.00020   2.04006
    R5        2.59256   0.00025   0.00000   0.00062   0.00062   2.59319
    R6        2.60890   0.00007   0.00000   0.00020   0.00020   2.60910
    R7        2.04387   0.00006   0.00000   0.00018   0.00018   2.04405
    R8        2.04438   0.00010   0.00000   0.00026   0.00026   2.04464
    R9        2.58399  -0.00009   0.00000  -0.00038  -0.00038   2.58361
    A1        1.83572   0.00001   0.00000  -0.00001  -0.00001   1.83571
    A2        2.31876   0.00004   0.00000   0.00020   0.00020   2.31896
    A3        2.13111   0.00005   0.00000   0.00019   0.00019   2.13131
    A4        1.83331  -0.00009   0.00000  -0.00039  -0.00039   1.83291
    A5        1.93449   0.00001   0.00000   0.00016   0.00016   1.93464
    A6        2.11501   0.00003   0.00000   0.00040   0.00040   2.11541
    A7        2.23369  -0.00004   0.00000  -0.00056  -0.00056   2.23313
    A8        2.19841  -0.00009   0.00000  -0.00061  -0.00061   2.19780
    A9        1.95106   0.00005   0.00000   0.00008   0.00008   1.95114
   A10        2.13372   0.00004   0.00000   0.00053   0.00053   2.13425
   A11        2.20370  -0.00001   0.00000  -0.00005  -0.00005   2.20365
   A12        2.20928  -0.00001   0.00000  -0.00012  -0.00012   2.20916
   A13        1.87021   0.00002   0.00000   0.00017   0.00017   1.87038
    D1        0.00000   0.00000   0.00000   0.00000   0.00000   0.00000
    D2        3.14159   0.00000   0.00000   0.00000   0.00000   3.14159
    D3        3.14159   0.00000   0.00000   0.00000   0.00000   3.14159
    D4        0.00000   0.00000   0.00000   0.00000   0.00000   0.00000
    D5        3.14159   0.00000   0.00000   0.00000   0.00000   3.14159
    D6        0.00000   0.00000   0.00000   0.00000   0.00000   0.00000
    D7        0.00000   0.00000   0.00000   0.00000   0.00000   0.00000
    D8        3.14159   0.00000   0.00000   0.00000   0.00000   3.14159
    D9        0.00000   0.00000   0.00000   0.00000   0.00000   0.00000
   D10        3.14159   0.00000   0.00000   0.00000   0.00000   3.14159
   D11        3.14159   0.00000   0.00000   0.00000   0.00000   3.14159
   D12        0.00000   0.00000   0.00000   0.00000   0.00000   0.00000
   D13        3.14159   0.00000   0.00000   0.00000   0.00000   3.14159
   D14        0.00000   0.00000   0.00000   0.00000   0.00000   0.00000
   D15        0.00000   0.00000   0.00000   0.00000   0.00000   0.00000
   D16        3.14159   0.00000   0.00000   0.00000   0.00000   3.14159
         Item               Value     Threshold  Converged?
 Maximum Force            0.000248     0.000450     YES
 RMS     Force            0.000060     0.000300     YES
 Maximum Displacement     0.000547     0.001800     YES
 RMS     Displacement     0.000191     0.001200     YES
 Predicted change in Energy=-2.476961D-07
 Optimization completed.
    -- Stationary point found.
                         ----------------------------
                         !   Optimized Parameters   !
                         ! (Angstroms and Degrees)  !
 ------------------------                            -------------------------
 ! Name  Definition              Value          Derivative Info.             !
 -----------------------------------------------------------------------------
 ! R1    R(1,5)                  1.3788         -DE/DX =   -0.0001           !
 ! R2    R(1,8)                  1.3149         -DE/DX =    0.               !
 ! R3    R(2,9)                  1.0095         -DE/DX =    0.               !
 ! R4    R(3,4)                  1.0794         -DE/DX =    0.0001           !
 ! R5    R(3,5)                  1.3719         -DE/DX =    0.0002           !
 ! R6    R(3,9)                  1.3806         -DE/DX =    0.0001           !
 ! R7    R(5,6)                  1.0816         -DE/DX =    0.0001           !
 ! R8    R(7,8)                  1.0818         -DE/DX =    0.0001           !
 ! R9    R(8,9)                  1.3674         -DE/DX =   -0.0001           !
 ! A1    A(5,1,8)              105.1791         -DE/DX =    0.               !
 ! A2    A(4,3,5)              132.8553         -DE/DX =    0.               !
 ! A3    A(4,3,9)              122.1039         -DE/DX =    0.0001           !
 ! A4    A(5,3,9)              105.0408         -DE/DX =   -0.0001           !
 ! A5    A(1,5,3)              110.8378         -DE/DX =    0.               !
 ! A6    A(1,5,6)              121.1811         -DE/DX =    0.               !
 ! A7    A(3,5,6)              127.981          -DE/DX =    0.               !
 ! A8    A(1,8,7)              125.9596         -DE/DX =   -0.0001           !
 ! A9    A(1,8,9)              111.7874         -DE/DX =    0.0001           !
 ! A10   A(7,8,9)              122.253          -DE/DX =    0.               !
 ! A11   A(2,9,3)              126.2628         -DE/DX =    0.               !
 ! A12   A(2,9,8)              126.5823         -DE/DX =    0.               !
 ! A13   A(3,9,8)              107.1549         -DE/DX =    0.               !
 ! D1    D(8,1,5,3)              0.             -DE/DX =    0.               !
 ! D2    D(8,1,5,6)            180.             -DE/DX =    0.               !
 ! D3    D(5,1,8,7)            180.             -DE/DX =    0.               !
 ! D4    D(5,1,8,9)              0.             -DE/DX =    0.               !
 ! D5    D(4,3,5,1)            180.             -DE/DX =    0.               !
 ! D6    D(4,3,5,6)              0.             -DE/DX =    0.               !
 ! D7    D(9,3,5,1)              0.             -DE/DX =    0.               !
 ! D8    D(9,3,5,6)            180.             -DE/DX =    0.               !
 ! D9    D(4,3,9,2)              0.             -DE/DX =    0.               !
 ! D10   D(4,3,9,8)            180.             -DE/DX =    0.               !
 ! D11   D(5,3,9,2)            180.             -DE/DX =    0.               !
 ! D12   D(5,3,9,8)              0.             -DE/DX =    0.               !
 ! D13   D(1,8,9,2)            180.             -DE/DX =    0.               !
 ! D14   D(1,8,9,3)              0.             -DE/DX =    0.               !
 ! D15   D(7,8,9,2)              0.             -DE/DX =    0.               !
 ! D16   D(7,8,9,3)            180.             -DE/DX =    0.               !
 -----------------------------------------------------------------------------
 GradGradGradGradGradGradGradGradGradGradGradGradGradGradGradGradGradGrad

 1\1\GINC-QCHEM3\Freq\RB3LYP\6-31G(d)\C3H4N2\RDJ3\18-Jan-1999\0\\#N GEO
 M=ALLCHECK GUESS=TCHECK RB3LYP/6-31G(D) FREQ\\1H imidazole C3H4N2 casn
 o=288324\\0,1\N,0.4986907051,0.,1.130218645\H,0.4910391602,0.,-2.05800
 24525\C,-1.0228174506,0.,-0.5473307894\H,-1.9034907912,0.,-1.171529471
 4\C,-0.8430974769,0.,0.812772561\H,-1.6010686897,0.,1.5843137403\H,2.1
 985552554,0.,-0.1660954435\C,1.125897755,0.,-0.0254500001\N,0.25203330
 92,0.,-1.0771667882\\Version=x86-Linux-G98RevA.4\State=1-A'\HF=-226.21
 45544\RMSD=1.034e-09\RMSF=1.128e-04\Dipole=-0.1107834,0.,-1.4578025\Di
 poleDeriv=-0.3938901,-0.0000421,-0.0142519,-0.0002929,-0.3044091,-0.00
 01869,-0.0110048,0.0000561,-0.5892219,0.183311,-0.0000026,-0.00099,-0.
 0000129,0.3379318,-0.0000248,-0.001471,-0.0000387,0.172893,0.017315,0.
 0000028,-0.2314874,0.0002325,-0.1117911,0.0000578,-0.0233692,0.0000269
 ,0.1886381,0.009111,-0.0000332,-0.0439443,-0.0001619,0.1666851,-0.0000
 643,-0.0729811,-0.0000309,0.0292476,0.1978774,-0.0000293,-0.0576009,0.
 0001545,-0.0978452,0.0000368,-0.0792273,0.0000083,0.1379735,-0.014838,
 -0.0000189,0.0690918,0.0000305,0.1296846,0.0000752,0.0821701,0.0000069
 ,0.0191307,-0.0360997,0.0000618,0.033854,-0.0000142,0.1377947,0.000014
 6,0.036954,0.0000111,0.060022,0.1494384,-0.0000772,0.0985521,0.0003104
 ,0.019798,0.000165,0.002413,-0.0001293,0.5497462,-0.1122246,0.0001387,
 0.1467767,-0.0002461,-0.2778487,-0.0000734,0.0665162,0.0000897,-0.5684
 287\Polar=48.1683052,0.0003668,17.4686701,-0.8667731,-0.0001224,45.401
 3328\PG=CS [SG(C3H4N2)]\NImag=0\\0.49413665,-0.00000023,0.10388405,-0.
 06131330,0.00002397,0.57722814,-0.00315329,0.00000404,-0.00811995,0.08
 211375,-0.00000118,0.00712619,0.00000449,0.00000038,0.01085841,-0.0030
 5384,-0.00000233,-0.00397555,-0.09622189,-0.00000011,0.45051662,-0.033
 12900,0.00000131,-0.01329981,0.00739190,0.00000089,-0.00273943,0.74497
 377,0.00000035,0.01624607,-0.00001255,-0.00000092,-0.00800486,0.000001
 12,-0.00000113,0.10463429,-0.08770026,0.00002984,-0.01991009,0.0282890
 6,0.00000442,-0.00091853,0.16078878,-0.00000678,0.74555676,0.00143583,
 -0.00000679,0.00108023,0.00011470,-0.00000226,0.00010335,-0.25688612,0
 .00000010,-0.14049543,0.27179252,-0.00000043,0.00733015,0.00001006,0.0
 0000075,-0.00110654,-0.00000072,0.00000113,-0.01932045,0.00000633,-0.0
 0000059,0.01788469,-0.00398145,-0.00000474,-0.00552999,-0.00094113,-0.
 00000183,0.00012896,-0.15085881,-0.00000016,-0.16665525,0.15500727,-0.
 00000035,0.15982921,-0.25622394,-0.00004015,-0.03726388,-0.00872654,-0
 .00000549,-0.00123984,-0.10138164,0.00001038,-0.01948785,0.00505021,-0
 .00000942,-0.02225910,0.65972832,0.00000028,-0.06943848,-0.00001063,-0
 .00000207,0.00228767,0.00000163,-0.00000022,-0.06245545,-0.00001381,0.
 00000386,-0.00238383,0.00000245,0.00001803,0.12999536,-0.04810406,-0.0
 0000534,-0.11221191,0.00353711,-0.00000035,0.00013640,-0.03623102,0.00
 000802,-0.39368609,0.00077602,-0.00000581,0.00208932,-0.15483288,0.000
 00129,0.80164993,-0.02043793,0.00002497,0.02070797,0.00089089,0.000002
 81,-0.00003590,0.00895819,-0.00000428,-0.00508829,-0.00020176,0.000004
 09,0.00068450,-0.19391885,-0.00001149,0.14716111,0.21070814,-0.0000005
 4,-0.00554530,-0.00000192,-0.00000004,0.00209671,0.00000042,0.00000009
 ,-0.00098582,-0.00000164,-0.00000138,-0.00200704,-0.00000074,0.0000033
 5,-0.02790731,0.00000229,-0.00000150,0.02278853,-0.00627882,-0.0000214
 0,0.01275962,0.00128453,-0.00000258,0.00026813,0.02064336,0.00000289,-
 0.00844560,-0.00046357,-0.00000302,-0.00015985,0.14972489,0.00001002,-
 0.21958742,-0.15998540,0.00000104,0.21967223,-0.00867438,-0.00001258,0
 .00485382,-0.00058523,-0.00000024,-0.00047581,0.00086335,-0.00000161,-
 0.00322662,-0.00032053,0.00000051,0.00039294,0.00100069,0.00000519,0.0
 0249243,-0.00031011,0.00000157,-0.00021429,0.37096886,-0.00000012,-0.0
 0583001,-0.00000107,0.00000012,-0.00120956,-0.00000177,-0.00000123,0.0
 0250939,0.00000025,0.00000036,0.00196177,0.00000017,-0.00000042,0.0070
 6397,0.00000122,0.00000029,0.00118445,-0.00000048,-0.00000036,0.020183
 02,0.02970444,0.00000134,0.00049452,0.00053519,0.00000028,0.00025807,-
 0.00088395,0.00000048,-0.00585090,-0.00105052,-0.00000016,0.00105709,0
 .00285397,-0.00000064,-0.00444688,0.00139837,-0.00000014,0.00069936,-0
 .03921423,0.00000036,0.06264391,-0.16873378,0.00001475,0.11918384,0.01
 855910,-0.00000002,0.01392003,-0.09143436,-0.00000288,0.00533632,-0.00
 309812,0.00000227,0.00402799,-0.08900712,-0.00000601,0.01509864,-0.006
 04173,-0.00000233,-0.00341463,-0.34951821,0.00000020,0.03648982,0.8967
 8301,-0.00000015,-0.07524050,-0.00002108,-0.00000359,-0.00935659,0.000
 00343,-0.00000035,0.01668604,-0.00002594,0.00000483,0.00258847,0.00000
 324,0.00003551,0.00992483,0.00000542,-0.00002158,0.00536553,0.00001848
 ,0.00001075,-0.02318131,-0.00000133,-0.00001310,0.12991364,0.14432058,
 -0.00002799,-0.34287133,-0.01651326,-0.00000681,-0.01080097,-0.0468138
 1,0.00001010,-0.01083324,0.00394460,-0.00000951,-0.00548193,0.07535180
 ,0.00001205,-0.00166633,-0.00194896,0.00000227,0.00024465,0.03166957,0
 .00000059,-0.06235274,-0.08778780,0.00002424,0.64655267,-0.00522015,0.
 00001468,-0.02582891,-0.09660527,0.00000510,0.08974333,-0.27935610,0.,
 0.06158430,-0.01788672,0.00000168,0.01792777,-0.01652113,-0.00000756,0
 .07010265,0.00035317,0.00000078,-0.00129606,-0.01342443,0.00000115,-0.
 02983309,-0.20750879,-0.00001231,-0.10222273,0.63616942,0.00000200,0.0
 2146784,0.00000873,0.00000134,-0.00269142,-0.00000169,-0.00000048,-0.0
 4930922,0.00000733,0.00000188,-0.00494722,0.00000197,-0.00001180,0.012
 91324,-0.00000673,0.00000669,0.00501026,-0.00000495,-0.00000322,-0.002
 68171,-0.00000017,0.00000712,-0.05670012,-0.00000496,-0.00000352,0.076
 93834,0.03640671,0.00000666,-0.10598340,0.08815034,0.00000250,-0.43561
 311,0.06939469,-0.00000313,-0.13925708,-0.01890196,0.00000317,0.014722
 44,0.00715290,-0.00000235,-0.07227702,-0.00289339,-0.00000157,-0.00545
 112,0.00372219,0.00000073,0.00749758,-0.10285421,-0.00000646,-0.212790
 76,-0.08017727,0.00000047,0.94915248\\0.00008169,0.,-0.00001027,-0.000
 00058,0.,-0.00000176,0.00011903,0.,0.00022887,0.00007350,0.,0.00004403
 ,-0.00029052,0.,-0.00025834,0.00006759,0.,-0.00001657,-0.00010637,0.,-
 0.00004680,0.00018830,0.,0.00016939,-0.00013262,0.,-0.00010854\\\@

 SCIENCE IS A VERY HUMAN FORM OF KNOWLEDGE.
 WE ARE ALWAYS AT THE BRINK OF THE KNOWN,
 WE ALWAYS FEEL FORWARD FOR WHAT IS HOPED.
 EVERY JUDGEMENT IN SCIENCE STANDS ON THE EDGE OF ERROR, AND IS PERSONAL.
 SCIENCE IS A TRIBUTE TO WHAT WE CAN KNOW ALTHOUGH WE ARE FALLIBLE.

                     -- J. BRONOWSKI
 Job cpu time:  0 days  0 hours 33 minutes  2.3 seconds.
 File lengths (MBytes):  RWF=   16 Int=    0 D2E=    0 Chk=    3 Scr=    1
 Normal termination of Gaussian 98.
