 Gaussian 98, Revision A.6,
 Gaussian 98:  IBM-RS6000-G98RevA.6 19-Oct-1998

 -----------------------
 #B3LYP/CEP-31G opt freq
 -----------------------

 --------------------------------
 1H imidazole C3H4N2 casno=288324
 --------------------------------
 Symbolic Z-matrix:
 Charge =  0 Multiplicity = 1

 SCF Done:  E(RB+HF-LYP) =  -38.9777095322     A.U. after   17 cycles
 SCF Done:  E(RB+HF-LYP) =  -39.0528633977     A.U. after   14 cycles
 SCF Done:  E(RB+HF-LYP) =  -39.0738290331     A.U. after   15 cycles
 SCF Done:  E(RB+HF-LYP) =  -39.0742811915     A.U. after   12 cycles
 SCF Done:  E(RB+HF-LYP) =  -39.0744268893     A.U. after   10 cycles
 SCF Done:  E(RB+HF-LYP) =  -39.0744396993     A.U. after   10 cycles
 Optimization completed.
    -- Stationary point found.
 Normal termination of Gaussian 98.

 -------------------------------------------------
 #N Geom=AllCheck Guess=TCheck RB3LYP/CEP-31G Freq
 -------------------------------------------------

 1H imidazole C3H4N2 casno=288324
 --------------------------------
 Redundant internal coordinates taken from checkpointfile:
 /wrk/rdj3/Gau-15744.chk
 Charge =  0 Multiplicity = 1

                         Standard orientation:
 ---------------------------------------------------------------------
 Center     Atomic     Atomic              Coordinates (Angstroms)
 Number     Number      Type              X           Y           Z
 ---------------------------------------------------------------------
    1          7             0       -0.768435   -1.024671    0.000000
    2          1             0       -0.001169    2.123639    0.000000
    3          6             0        1.139402    0.281671    0.000000
    4          1             0        2.147973    0.679860    0.000000
    5          6             0        0.641182   -1.032432    0.000000
    6          1             0        1.196689   -1.964151    0.000000
    7          1             0       -2.139645    0.650518    0.000000
    8          6             0       -1.121003    0.274121    0.000000
    9          7             0        0.000000    1.108010    0.000000
 ---------------------------------------------------------------------

 SCF Done:  E(RB+HF-LYP) =  -39.0744396993     A.U. after    1 cycles

  The electronic state is 1-A'.
 Alpha  occ. eigenvalues --   -1.02235  -0.88360  -0.75406  -0.62523  -0.59613
 Alpha  occ. eigenvalues --   -0.56748  -0.44750  -0.44503  -0.42922  -0.41599
 Alpha  occ. eigenvalues --   -0.28584  -0.26281  -0.23763
 Alpha virt. eigenvalues --    0.00875   0.05003   0.06903   0.13117   0.13912
 Alpha virt. eigenvalues --    0.16906   0.18099   0.21170   0.23528   0.27323
 Alpha virt. eigenvalues --    0.29909   0.30066   0.34350   0.34657   0.37383

  Exact polarizability:  48.426  -0.177  48.063   0.000   0.000  21.263
 Approx polarizability:  75.054   2.933  80.837   0.000   0.000  26.341

                     1                      2                      3
                    A"                     A"                     A"
 Frequencies --   616.2635               648.0598               665.0575
 Red. masses --     3.3727                 1.4207                 2.2667
 Frc consts  --     0.7547                 0.3516                 0.5907
 IR Inten    --    36.1874               129.8084                 4.2750
 Raman Activ --     0.0000                 0.0000                 0.0000

                     4                      5                      6
                    A"                     A"                     A"
 Frequencies --   762.9841               833.2272               884.5589
 Red. masses --     1.2436                 1.3264                 1.3575
 Frc consts  --     0.4266                 0.5426                 0.6258
 IR Inten    --    68.8796                55.6678                 3.8136
 Raman Activ --     0.0000                 0.0000                 0.0000

                     7                      8                      9
                    A'                     A'                     A'
 Frequencies --   892.5265               928.0842              1054.9216
 Red. masses --     5.7369                 4.7494                 1.7478
 Frc consts  --     2.6926                 2.4103                 1.1460
 IR Inten    --     7.2829                 4.3924                46.8840
 Raman Activ --     0.0000                 0.0000                 0.0000

                    10                     11                     12
                    A'                     A'                     A'
 Frequencies --  1087.4953              1121.2586              1149.9088
 Red. masses --     1.6074                 5.9803                 1.4265
 Frc consts  --     1.1200                 4.4298                 1.1113
 IR Inten    --    22.7414                 8.0951                 1.0469
 Raman Activ --     0.0000                 0.0000                 0.0000

                    13                     14                     15
                    A'                     A'                     A'
 Frequencies --  1261.1955              1333.4862              1390.4324
 Red. masses --     1.4033                 3.2488                 2.5433
 Frc consts  --     1.3151                 3.4037                 2.8970
 IR Inten    --     1.0522                 5.2489                14.1600
 Raman Activ --     0.0000                 0.0000                 0.0000

                    16                     17                     18
                    A'                     A'                     A'
 Frequencies --  1466.8514              1531.3287              3275.1997
 Red. masses --     2.7744                 2.9349                 1.0915
 Frc consts  --     3.5171                 4.0549                 6.8982
 IR Inten    --    13.8046                13.1341                 3.8061
 Raman Activ --     0.0000                 0.0000                 0.0000

                    19                     20                     21
                    A'                     A'                     A'
 Frequencies --  3290.1863              3307.1788              3676.9212
 Red. masses --     1.0984                 1.1099                 1.0830
 Frc consts  --     7.0055                 7.1522                 8.6267
 IR Inten    --     5.6890                 4.5172                43.8170
 Raman Activ --     0.0000                 0.0000                 0.0000

 - Thermochemistry -
 -------------------
 Temperature   298.150 Kelvin.  Pressure   1.00000 Atm.
 Atom  1 has atomic number  7 and mass  14.00307

 Molecular mass:    68.03745 amu.
 Principal axes and moments of inertia in atomic units:
                           1         2         3
     EIGENVALUES --   193.09171 200.63944 393.73115
           X            0.46520   0.88521   0.00000
           Y            0.88521  -0.46520   0.00000
           Z            0.00000   0.00000   1.00000
 THIS MOLECULE IS AN ASYMMETRIC TOP.
 ROTATIONAL SYMMETRY NUMBER  1.
 ROTATIONAL TEMPERATURES (KELVIN)      0.44856     0.43169     0.21998
 ROTATIONAL CONSTANTS (GHZ)            9.34655     8.99495     4.58369
 Zero-point vibrational energy     186480.7 (Joules/Mol)
                                   44.56995 (Kcal/Mol)
 WARNING-- EXPLICIT CONSIDERATION OF   1 DEGREES OF FREEDOM AS
           VIBRATIONS MAY CAUSE SIGNIFICANT ERROR
 VIBRATIONAL TEMPERATURES:    886.66   932.41   956.86  1097.76  1198.82
          (KELVIN)           1272.68  1284.14  1335.30  1517.79  1564.65
                             1613.23  1654.45  1814.57  1918.58  2000.51
                             2110.46  2203.23  4712.25  4733.82  4758.27
                             5290.24

 Zero-point correction=                           0.071027 (Hartree/Particle)
 Thermal correction to Energy=                    0.074734
 Thermal correction to Enthalpy=                  0.075678
 Thermal correction to Gibbs Free Energy=         0.044728
 Sum of electronic and zero-point Energies=            -39.003413
 Sum of electronic and thermal Energies=               -38.999706
 Sum of electronic and thermal Enthalpies=             -38.998762
 Sum of electronic and thermal Free Energies=          -39.029712

                     E (Thermal)             CV                S
                      KCAL/MOL        CAL/MOL-KELVIN    CAL/MOL-KELVIN
 TOTAL                   46.896             13.270             65.140
 ELECTRONIC               0.000              0.000              0.000
 TRANSLATIONAL            0.889              2.981             38.570
 ROTATIONAL               0.889              2.981             24.238
 VIBRATIONAL             45.119              7.308              2.332
 VIBRATION  1             0.976              0.998              0.423
                       Q            LOG10(Q)             LN(Q)
 TOTAL BOT       0.267198D-20        -20.573167        -47.371467
 TOTAL V=0       0.124922D+13         12.096639         27.853540
 VIB (BOT)       0.273975D-32        -32.562288        -74.977440
 VIB (BOT)  1    0.238239D+00         -0.622987         -1.434480
 VIB (V=0)       0.128091D+01          0.107517          0.247567
 VIB (V=0)  1    0.105386D+01          0.022782          0.052457
 ELECTRONIC      0.100000D+01          0.000000          0.000000
 TRANSLATIONAL   0.220588D+08          7.343582         16.909224
 ROTATIONAL      0.442119D+05          4.645539         10.696749
 ***** Axes restored to original set *****
 -------------------------------------------------------------------
 Center     Atomic                   Forces (Hartrees/Bohr)
 Number     Number              X              Y              Z
 -------------------------------------------------------------------
    1          7           0.000498530    0.000000000   -0.000027806
    2          1          -0.000011809    0.000000000   -0.000127289
    3          6           0.000421269    0.000000000    0.000006034
    4          1          -0.000160378    0.000000000   -0.000124064
    5          6          -0.000335980    0.000000000   -0.000248901
    6          1          -0.000083743    0.000000000    0.000207733
    7          1           0.000246266    0.000000000   -0.000045488
    8          6          -0.000763952    0.000000000   -0.000143485
    9          7           0.000189796    0.000000000    0.000503266
 -------------------------------------------------------------------
 Cartesian Forces:  Max     0.000763952 RMS     0.000248364

 GradGradGradGradGradGradGradGradGradGradGradGradGradGradGradGradGradGrad
 Berny optimization.
 Internal  Forces:  Max     0.000416969 RMS     0.000125182
 Search for a local minimum.
 Step number   1 out of a maximum of  48
 All quantities printed in internal units (Hartrees-Bohrs-Radians)
 Second derivative matrix not updated -- analytic derivatives used.
     Eigenvalues ---    0.00756   0.01218   0.02171   0.02866   0.05968
     Eigenvalues ---    0.06175   0.09747   0.10419   0.10884   0.11621
     Eigenvalues ---    0.23147   0.23991   0.32238   0.37443   0.37936
     Eigenvalues ---    0.38043   0.38612   0.42398   0.46852   0.48255
     Eigenvalues ---    0.533131000.000001000.000001000.000001000.00000
     Eigenvalues --- 1000.000001000.000001000.000001000.000001000.00000
     Eigenvalues --- 1000.000001000.000001000.000001000.000001000.00000
     Eigenvalues --- 1000.000001000.000001000.00000
 Angle between quadratic step and forces=  26.01 degrees.
 Linear search not attempted -- first point.
 Iteration  1 RMS(Cart)=  0.00039524 RMS(Int)=  0.00000014
 Iteration  2 RMS(Cart)=  0.00000014 RMS(Int)=  0.00000001
 Variable       Old X    -DE/DX   Delta X   Delta X   Delta X     New X
                                 (Linear)    (Quad)   (Total)
    R1        2.66383   0.00031   0.00000   0.00130   0.00130   2.66513
    R2        2.54319  -0.00017   0.00000  -0.00035  -0.00035   2.54283
    R3        1.91926   0.00012   0.00000   0.00024   0.00024   1.91950
    R4        2.04909   0.00020   0.00000   0.00054   0.00054   2.04963
    R5        2.65578   0.00000   0.00000  -0.00005  -0.00005   2.65573
    R6        2.65980  -0.00017   0.00000  -0.00034  -0.00034   2.65946
    R7        2.04988   0.00021   0.00000   0.00051   0.00051   2.05039
    R8        2.05217   0.00025   0.00000   0.00069   0.00069   2.05286
    R9        2.64022  -0.00042   0.00000  -0.00122  -0.00122   2.63901
    A1        1.84137  -0.00011   0.00000  -0.00043  -0.00043   1.84094
    A2        2.30921   0.00000   0.00000  -0.00003  -0.00003   2.30917
    A3        2.13811  -0.00002   0.00000  -0.00015  -0.00015   2.13796
    A4        1.83587   0.00002   0.00000   0.00018   0.00018   1.83605
    A5        1.92768  -0.00015   0.00000  -0.00047  -0.00047   1.92721
    A6        2.11394  -0.00001   0.00000  -0.00075  -0.00075   2.11319
    A7        2.24157   0.00016   0.00000   0.00122   0.00122   2.24279
    A8        2.18981  -0.00006   0.00000  -0.00030  -0.00030   2.18951
    A9        1.94530   0.00016   0.00000   0.00059   0.00059   1.94589
   A10        2.14807  -0.00009   0.00000  -0.00029  -0.00029   2.14778
   A11        2.19941  -0.00007   0.00000  -0.00051  -0.00051   2.19891
   A12        2.20922   0.00000   0.00000   0.00037   0.00037   2.20959
   A13        1.87456   0.00007   0.00000   0.00013   0.00013   1.87469
    D1        0.00000   0.00000   0.00000   0.00000   0.00000   0.00000
    D2        3.14159   0.00000   0.00000   0.00000   0.00000   3.14159
    D3        3.14159   0.00000   0.00000   0.00000   0.00000   3.14159
    D4        0.00000   0.00000   0.00000   0.00000   0.00000   0.00000
    D5        3.14159   0.00000   0.00000   0.00000   0.00000   3.14159
    D6        0.00000   0.00000   0.00000   0.00000   0.00000   0.00000
    D7        0.00000   0.00000   0.00000   0.00000   0.00000   0.00000
    D8        3.14159   0.00000   0.00000   0.00000   0.00000   3.14159
    D9        0.00000   0.00000   0.00000   0.00000   0.00000   0.00000
   D10        3.14159   0.00000   0.00000   0.00000   0.00000   3.14159
   D11        3.14159   0.00000   0.00000   0.00000   0.00000   3.14159
   D12        0.00000   0.00000   0.00000   0.00000   0.00000   0.00000
   D13        3.14159   0.00000   0.00000   0.00000   0.00000   3.14159
   D14        0.00000   0.00000   0.00000   0.00000   0.00000   0.00000
   D15        0.00000   0.00000   0.00000   0.00000   0.00000   0.00000
   D16        3.14159   0.00000   0.00000   0.00000   0.00000   3.14159
         Item               Value     Threshold  Converged?
 Maximum Force            0.000417     0.000450     YES
 RMS     Force            0.000125     0.000300     YES
 Maximum Displacement     0.001384     0.001800     YES
 RMS     Displacement     0.000395     0.001200     YES
 Predicted change in Energy=-9.794109D-07
 Optimization completed.
    -- Stationary point found.
                         ----------------------------
                         !   Optimized Parameters   !
                         ! (Angstroms and Degrees)  !
 ------------------------                            -------------------------
 ! Name  Definition              Value          Derivative Info.             !
 -----------------------------------------------------------------------------
 ! R1    R(1,5)                  1.4096         -DE/DX =    0.0003           !
 ! R2    R(1,8)                  1.3458         -DE/DX =   -0.0002           !
 ! R3    R(2,9)                  1.0156         -DE/DX =    0.0001           !
 ! R4    R(3,4)                  1.0843         -DE/DX =    0.0002           !
 ! R5    R(3,5)                  1.4054         -DE/DX =    0.               !
 ! R6    R(3,9)                  1.4075         -DE/DX =   -0.0002           !
 ! R7    R(5,6)                  1.0848         -DE/DX =    0.0002           !
 ! R8    R(7,8)                  1.086          -DE/DX =    0.0002           !
 ! R9    R(8,9)                  1.3971         -DE/DX =   -0.0004           !
 ! A1    A(5,1,8)              105.5029         -DE/DX =   -0.0001           !
 ! A2    A(4,3,5)              132.3078         -DE/DX =    0.               !
 ! A3    A(4,3,9)              122.5045         -DE/DX =    0.               !
 ! A4    A(5,3,9)              105.1877         -DE/DX =    0.               !
 ! A5    A(1,5,3)              110.448          -DE/DX =   -0.0001           !
 ! A6    A(1,5,6)              121.1196         -DE/DX =    0.               !
 ! A7    A(3,5,6)              128.4325         -DE/DX =    0.0002           !
 ! A8    A(1,8,7)              125.4671         -DE/DX =   -0.0001           !
 ! A9    A(1,8,9)              111.4573         -DE/DX =    0.0002           !
 ! A10   A(7,8,9)              123.0756         -DE/DX =   -0.0001           !
 ! A11   A(2,9,3)              126.017          -DE/DX =   -0.0001           !
 ! A12   A(2,9,8)              126.5788         -DE/DX =    0.               !
 ! A13   A(3,9,8)              107.4042         -DE/DX =    0.0001           !
 ! D1    D(8,1,5,3)              0.             -DE/DX =    0.               !
 ! D2    D(8,1,5,6)            180.             -DE/DX =    0.               !
 ! D3    D(5,1,8,7)            180.             -DE/DX =    0.               !
 ! D4    D(5,1,8,9)              0.             -DE/DX =    0.               !
 ! D5    D(4,3,5,1)            180.             -DE/DX =    0.               !
 ! D6    D(4,3,5,6)              0.             -DE/DX =    0.               !
 ! D7    D(9,3,5,1)              0.             -DE/DX =    0.               !
 ! D8    D(9,3,5,6)            180.             -DE/DX =    0.               !
 ! D9    D(4,3,9,2)              0.             -DE/DX =    0.               !
 ! D10   D(4,3,9,8)            180.             -DE/DX =    0.               !
 ! D11   D(5,3,9,2)            180.             -DE/DX =    0.               !
 ! D12   D(5,3,9,8)              0.             -DE/DX =    0.               !
 ! D13   D(1,8,9,2)            180.             -DE/DX =    0.               !
 ! D14   D(1,8,9,3)              0.             -DE/DX =    0.               !
 ! D15   D(7,8,9,2)              0.             -DE/DX =    0.               !
 ! D16   D(7,8,9,3)            180.             -DE/DX =    0.               !
 -----------------------------------------------------------------------------
 GradGradGradGradGradGradGradGradGradGradGradGradGradGradGradGradGradGrad

 1\1\GINC-INDIUM\Freq\RB3LYP\CEP-31G\C3H4N2\RDJ3\10-Sep-2000\0\\#N GEOM
 =ALLCHECK GUESS=TCHECK RB3LYP/CEP-31G FREQ\\1H imidazole C3H4N2 casno=
 288324\\0,1\N,0.5090606975,0.,1.1752874325\H,0.4950232671,0.,-2.065138
 1699\C,-1.042653269,0.,-0.5389340462\H,-1.930964778,0.,-1.1607648508\C
 ,-0.8637095901,0.,0.8550061406\H,-1.6206712818,0.,1.6319853434\H,2.232
 2659666,0.,-0.1350724962\C,1.1540167362,0.,-0.0058978218\N,0.257685565
 9,0.,-1.0776288158\\Version=IBM-RS6000-G98RevA.6\State=1-A'\HF=-39.074
 4397\RMSD=9.421e-10\RMSF=2.484e-04\Dipole=-0.1917476,0.,-1.635786\Dipo
 leDeriv=-0.3070825,0.0000702,0.01504,0.0000261,-0.2941213,-0.0000264,0
 .0285705,0.0000369,-0.484503,0.1971461,0.0000074,-0.0173593,-0.0000081
 ,0.389671,-0.0000157,0.0075112,0.0000368,0.1641529,-0.0151788,0.000294
 2,-0.2993515,0.0000049,-0.1885821,0.0000496,-0.0847868,0.0002396,0.180
 9143,0.0153182,-0.0002685,-0.0539529,-0.0000688,0.2517599,0.0000107,-0
 .0959604,-0.000134,0.0408694,0.1636993,-0.0001355,-0.0298045,0.0000159
 ,-0.1943681,-0.0000407,-0.1340605,-0.0001862,0.1002241,0.0065088,0.000
 0441,0.0661205,-0.0001118,0.2057679,0.0000842,0.1083406,0.0000296,0.03
 77539,-0.0475547,-0.0000966,0.0378276,0.0000483,0.2122579,0.0000237,0.
 0390498,0.0000192,0.0851238,0.1134236,0.0000115,0.0905463,-0.0000833,-
 0.0725369,0.0000491,0.0299243,-0.0001302,0.5237947,-0.1262789,0.000073
 4,0.1909335,0.0001768,-0.3098482,-0.0001346,0.1014113,0.0000884,-0.648
 3297\Polar=48.4863984,0.0000827,21.2627744,-0.0754055,0.0003201,48.002
 8125\PG=CS [SG(C3H4N2)]\NImag=0\\0.45996056,0.00000231,0.09847524,-0.0
 5951743,0.00000071,0.51050406,-0.00338691,0.00000046,-0.00741415,0.081
 81517,0.00000038,0.00620015,0.00000056,-0.00000014,0.01466952,-0.00240
 855,-0.00000014,-0.00226523,-0.09607827,0.00000076,0.45656574,-0.03339
 265,0.00000410,-0.01739219,0.00574547,0.00000157,-0.00723010,0.7191289
 0,0.00000011,0.01738369,0.00000208,0.00000193,-0.00473956,-0.00000477,
 -0.00000132,0.11517185,-0.07989267,0.00000218,-0.02295314,0.03020130,0
 .00000023,0.00055180,0.17067290,0.00000701,0.73052918,0.00154884,-0.00
 000424,0.00142578,-0.00004460,-0.00000078,0.00029639,-0.26075133,-0.00
 000597,-0.14414438,0.27271200,-0.00000154,0.00638674,0.00000075,-0.000
 00020,-0.00108562,0.00000051,0.00000030,-0.02423961,-0.00000006,0.0000
 0096,0.01953312,-0.00333199,-0.00000231,-0.00429737,-0.00103861,-0.000
 00037,0.00031222,-0.15600528,-0.00000314,-0.16533943,0.15454674,0.0000
 0065,0.15731209,-0.23618742,-0.00000168,-0.01722726,-0.00870520,-0.000
 00078,-0.00167946,-0.09441538,-0.00000294,-0.02347269,0.00437613,-0.00
 000070,-0.02123204,0.63519960,-0.00000055,-0.06703353,-0.00000157,-0.0
 0000137,0.00286952,0.00000319,-0.00000131,-0.06579647,-0.00000592,0.00
 000591,-0.00018267,0.00000313,0.00000286,0.13253228,-0.04241179,-0.000
 00186,-0.09802896,0.00244356,-0.00000072,0.00076198,-0.03339975,0.0000
 0002,-0.38342781,0.00546352,0.00000008,0.00411404,-0.17092948,0.000000
 79,0.77901909,-0.01607265,-0.00000034,0.01992556,0.00072120,-0.0000000
 3,0.00004950,0.00740808,0.00000357,-0.00892340,0.00011982,0.00000133,0
 .00088652,-0.19738311,-0.00000277,0.15432837,0.21025424,-0.00000171,-0
 .00476657,0.00000054,0.00000031,0.00165397,-0.00000143,-0.00000019,0.0
 0015930,0.00000147,-0.00000161,-0.00198991,-0.00000058,-0.00000035,-0.
 03045083,-0.00000038,0.00000223,0.02358073,-0.01037372,0.00000150,0.01
 072354,0.00109517,0.00000036,0.00014093,0.02069273,-0.00000301,-0.0049
 4157,-0.00087917,-0.00000127,-0.00060637,0.15856337,0.00000181,-0.2225
 8493,-0.16281137,-0.00000142,0.22071397,-0.00558422,-0.00000250,-0.000
 57459,-0.00039123,-0.00000052,-0.00062042,0.00111736,-0.00000390,-0.00
 357383,-0.00038356,0.00000090,0.00026715,0.00197255,0.00000276,0.00271
 801,-0.00050704,0.00000091,0.00006926,0.37519921,0.00000118,-0.0044861
 4,-0.00000059,0.00000092,-0.00100245,-0.00000207,0.00000161,0.00339812
 ,0.00000578,-0.00000470,0.00156045,-0.00000251,-0.00000137,0.00714618,
 -0.00000245,0.00000106,0.00087727,-0.00000028,-0.00000192,0.02195073,0
 .02805339,0.00000052,-0.00000178,0.00041343,0.00000011,0.00025404,-0.0
 0063367,-0.00000009,-0.00568628,-0.00106434,-0.00000018,0.00101130,0.0
 0263420,-0.00000008,-0.00407440,0.00146596,-0.00000058,0.00056541,-0.0
 3743547,0.00000022,0.06037309,-0.15995755,0.00000081,0.10399524,0.0150
 5779,0.00000011,0.01548707,-0.08534098,0.00000510,0.00341526,-0.002521
 84,-0.00000044,0.00439771,-0.08730863,-0.00000274,0.01834005,-0.005364
 79,0.00000083,-0.00480699,-0.36222435,0.00000117,0.03704296,0.87762662
 ,-0.00000204,-0.07275831,0.00000012,0.00000006,-0.00582797,-0.00000115
 ,-0.00000354,0.01451404,-0.00000053,0.00000177,0.00328443,0.00000099,0
 .00000037,0.00865282,0.00000150,0.00000160,0.00574071,-0.00000185,0.00
 000128,-0.02746918,-0.00000044,0.00000069,0.13475434,0.14184273,-0.000
 00331,-0.29246293,-0.02092386,-0.00000137,-0.00814896,-0.03969270,-0.0
 0000121,-0.01078908,0.00341318,-0.00000045,-0.00576347,0.06100350,0.00
 000156,-0.00832198,-0.00126411,0.00000214,0.00041441,0.03306107,0.0000
 0030,-0.05808417,-0.09226467,0.00000219,0.58092159,-0.00692802,0.00000
 107,-0.02322097,-0.09081170,0.00000019,0.09218382,-0.25949948,0.000003
 41,0.05571752,-0.01505547,-0.00000062,0.02150980,-0.01754853,-0.000002
 80,0.06344753,0.00082424,-0.00000042,-0.00154929,-0.00919872,0.0000020
 4,-0.03047645,-0.18996629,-0.00000019,-0.08517516,0.58818397,0.0000018
 6,0.02059872,-0.00000261,-0.00000197,-0.01273757,0.00000510,-0.0000012
 2,-0.05585136,-0.00001015,0.00000865,-0.00326693,0.00000412,0.00000458
 ,0.01226270,0.00000303,-0.00000666,0.00519533,0.00000416,0.00000298,-0
 .00197498,0.00000051,-0.00000554,-0.06089087,0.00000016,-0.00000268,0.
 09666495,0.02804005,0.00000271,-0.10121820,0.09130142,0.00000045,-0.44
 817253,0.06298806,0.00000311,-0.13794368,-0.01905772,-0.00000004,0.013
 25700,0.01233986,-0.00000290,-0.06745703,-0.00365704,0.00000024,-0.004
 42540,0.00608882,0.00000160,0.00564279,-0.08560665,-0.00000083,-0.1977
 6541,-0.09243681,-0.00000432,0.93808245\\-0.00049853,0.,0.00002781,0.0
 0001181,0.,0.00012729,-0.00042127,0.,-0.00000603,0.00016038,0.,0.00012
 406,0.00033598,0.,0.00024890,0.00008374,0.,-0.00020773,-0.00024627,0.,
 0.00004549,0.00076395,0.,0.00014349,-0.00018980,0.,-0.00050327\\\@

 I (ERNEST RUTHERFORD) CAME INTO THE ROOM, WHICH WAS HALF DARK, AND PRESENTLY
 SPOTTED LORD KELVIN IN THE AUDIENCE AND REALIZED I WAS IN TROUBLE AT
 THE LAST PART OF MY SPEECH DEALING THE AGE OF THE EARTH, WHERE MY VIEWS
 CONFLICTED WITH HIS.  TO MY RELIEF KELVIN FELL FAST ASLEEP, BUT AS I CAME
 TO THE IMPORTANT POINT, I SAW THE OLD BIRD SIT UP AND COCK A BALEFUL GLANCE
 AT ME! THEN A SUDDEN INSPIRATION CAME AND I SAID LORD KELVIN HAD LIMITED
 THE AGE OF THE EARTH PROVIDED NO NEW SOURCE WAS DISCOVERED. THAT
 PROPHETIC UTTERANCE REFERS TO WHAT WE ARE NOW CONSIDERING TONIGHT, RADIUM!
 BEHOLD!  THE OLD BOY BEAMED UPON ME.
 Job cpu time:  0 days  0 hours  2 minutes 42.6 seconds.
 File lengths (MBytes):  RWF=   12 Int=    0 D2E=    0 Chk=    8 Scr=    1
 Normal termination of Gaussian 98.
