 Gaussian 98, Revision A.6,
 Gaussian 98:  IBM-RS6000-G98RevA.6 19-Oct-1998

 -------------------
 #B3LYP/SDD opt freq
 -------------------

 --------------------------------
 1H imidazole C3H4N2 casno=288324
 --------------------------------
 Symbolic Z-matrix:
 Charge =  0 Multiplicity = 1

 SCF Done:  E(RB+HF-LYP) =  -226.093057025     A.U. after   16 cycles
 SCF Done:  E(RB+HF-LYP) =  -226.159172168     A.U. after   14 cycles
 SCF Done:  E(RB+HF-LYP) =  -226.173767677     A.U. after   14 cycles
 SCF Done:  E(RB+HF-LYP) =  -226.174168750     A.U. after   12 cycles
 SCF Done:  E(RB+HF-LYP) =  -226.174301286     A.U. after   10 cycles
 SCF Done:  E(RB+HF-LYP) =  -226.174314223     A.U. after    9 cycles
 Optimization completed.
    -- Stationary point found.
 Normal termination of Gaussian 98.

 ---------------------------------------------
 #N Geom=AllCheck Guess=TCheck RB3LYP/SDD Freq
 ---------------------------------------------

 1H imidazole C3H4N2 casno=288324
 --------------------------------
 Redundant internal coordinates taken from checkpointfile:
 /wrk/rdj3/Gau-17424.chk
 Charge =  0 Multiplicity = 1

                         Standard orientation:
 ---------------------------------------------------------------------
 Center     Atomic     Atomic              Coordinates (Angstroms)
 Number     Number      Type              X           Y           Z
 ---------------------------------------------------------------------
    1          7             0       -0.750007   -0.997214    0.000000
    2          1             0       -0.006843    2.130972    0.000000
    3          6             0        1.134229    0.303698    0.000000
    4          1             0        2.136810    0.699806    0.000000
    5          6             0        0.650393   -0.998446    0.000000
    6          1             0        1.208933   -1.921328    0.000000
    7          1             0       -2.125727    0.658929    0.000000
    8          6             0       -1.111808    0.289913    0.000000
    9          7             0        0.000000    1.120162    0.000000
 ---------------------------------------------------------------------

 SCF Done:  E(RB+HF-LYP) =  -226.174314223     A.U. after    1 cycles

  The electronic state is 1-A'.
 Alpha  occ. eigenvalues --  -14.39342 -14.32058 -10.25054 -10.23096 -10.20901
 Alpha  occ. eigenvalues --   -1.02248  -0.87971  -0.75281  -0.62459  -0.59643
 Alpha  occ. eigenvalues --   -0.56943  -0.45004  -0.44723  -0.43250  -0.41772
 Alpha  occ. eigenvalues --   -0.28691  -0.26094  -0.24091
 Alpha virt. eigenvalues --    0.00925   0.05086   0.07174   0.13412   0.13862
 Alpha virt. eigenvalues --    0.16831   0.18231   0.21410   0.24070   0.29363
 Alpha virt. eigenvalues --    0.29917   0.33860   0.34745   0.36858   0.38731

  Exact polarizability:  47.973  -0.695  46.847  -0.008  -0.010  19.134
 Approx polarizability:  74.391   1.958  79.132   0.000   0.000  23.937

                     1                      2                      3
                    A"                     A"                     A"
 Frequencies --   627.3323               663.0088               678.5510
 Red. masses --     3.0866                 1.4441                 2.0077
 Frc consts  --     0.7157                 0.3740                 0.5446
 IR Inten    --    32.2224               128.3840                 6.4410
 Raman Activ --     0.0000                 0.0000                 0.0000

                     4                      5                      6
                    A"                     A"                     A"
 Frequencies --   764.1664               822.5616               890.9995
 Red. masses --     1.2411                 1.4131                 1.4128
 Frc consts  --     0.4270                 0.5633                 0.6608
 IR Inten    --    60.4221                54.2344                 1.9189
 Raman Activ --     0.0000                 0.0000                 0.0000

                     7                      8                      9
                    A'                     A'                     A'
 Frequencies --   905.4446               943.1810              1064.8355
 Red. masses --     5.7261                 4.7508                 1.7691
 Frc consts  --     2.7659                 2.4900                 1.1818
 IR Inten    --     7.8402                 3.7807                47.8200
 Raman Activ --     0.0000                 0.0000                 0.0000

                    10                     11                     12
                    A'                     A'                     A'
 Frequencies --  1099.0045              1135.4871              1163.4615
 Red. masses --     1.5794                 5.6426                 1.4372
 Frc consts  --     1.1239                 4.2864                 1.1462
 IR Inten    --    24.0641                 7.4740                 0.3121
 Raman Activ --     0.0000                 0.0000                 0.0000

                    13                     14                     15
                    A'                     A'                     A'
 Frequencies --  1277.9824              1354.2904              1400.7078
 Red. masses --     1.4288                 3.1200                 2.6061
 Frc consts  --     1.3749                 3.3716                 3.0125
 IR Inten    --     0.6805                 7.1296                15.6199
 Raman Activ --     0.0000                 0.0000                 0.0000

                    16                     17                     18
                    A'                     A'                     A'
 Frequencies --  1477.7201              1536.9883              3299.1414
 Red. masses --     2.8830                 2.8218                 1.0922
 Frc consts  --     3.7092                 3.9275                 7.0042
 IR Inten    --    12.0699                15.1744                 3.3264
 Raman Activ --     0.0000                 0.0000                 0.0000

                    19                     20                     21
                    A'                     A'                     A'
 Frequencies --  3309.4424              3329.6249              3683.5914
 Red. masses --     1.0982                 1.1098                 1.0827
 Frc consts  --     7.0866                 7.2493                 8.6557
 IR Inten    --     2.3072                 2.5674                51.1037
 Raman Activ --     0.0000                 0.0000                 0.0000

 - Thermochemistry -
 -------------------
 Temperature   298.150 Kelvin.  Pressure   1.00000 Atm.
 Atom  1 has atomic number  7 and mass  14.00307

 Molecular mass:    68.03745 amu.
 Principal axes and moments of inertia in atomic units:
                           1         2         3
     EIGENVALUES --   191.02151 196.78834 387.80985
           X            0.45886   0.88851   0.00000
           Y            0.88851  -0.45886   0.00000
           Z            0.00000   0.00000   1.00000
 THIS MOLECULE IS AN ASYMMETRIC TOP.
 ROTATIONAL SYMMETRY NUMBER  1.
 ROTATIONAL TEMPERATURES (KELVIN)      0.45342     0.44013     0.22334
 ROTATIONAL CONSTANTS (GHZ)            9.44784     9.17098     4.65368
 Zero-point vibrational energy     187978.4 (Joules/Mol)
                                   44.92791 (Kcal/Mol)
 VIBRATIONAL TEMPERATURES:    902.59   953.92   976.28  1099.46  1183.48
          (KELVIN)           1281.94  1302.73  1357.02  1532.05  1581.21
                             1633.70  1673.95  1838.72  1948.51  2015.29
                             2126.10  2211.37  4746.70  4761.52  4790.56
                             5299.84

 Zero-point correction=                           0.071597 (Hartree/Particle)
 Thermal correction to Energy=                    0.075274
 Thermal correction to Enthalpy=                  0.076219
 Thermal correction to Gibbs Free Energy=         0.045330
 Sum of electronic and zero-point Energies=           -226.102717
 Sum of electronic and thermal Energies=              -226.099040
 Sum of electronic and thermal Enthalpies=            -226.098096
 Sum of electronic and thermal Free Energies=         -226.128984

                     E (Thermal)             CV                S
                      KCAL/MOL        CAL/MOL-KELVIN    CAL/MOL-KELVIN
 TOTAL                   47.235             13.092             65.010
 ELECTRONIC               0.000              0.000              0.000
 TRANSLATIONAL            0.889              2.981             38.570
 ROTATIONAL               0.889              2.981             24.193
 VIBRATIONAL             45.458              7.130              2.247
                       Q            LOG10(Q)             LN(Q)
 TOTAL BOT       0.141135D-20        -20.850364        -48.009737
 TOTAL V=0       0.120733D+13         12.081827         27.819434
 VIB (BOT)       0.148031D-32        -32.829646        -75.593054
 VIB (V=0)       0.126632D+01          0.102545          0.236118
 ELECTRONIC      0.100000D+01          0.000000          0.000000
 TRANSLATIONAL   0.220588D+08          7.343582         16.909224
 ROTATIONAL      0.432215D+05          4.635700         10.674093
 ***** Axes restored to original set *****
 -------------------------------------------------------------------
 Center     Atomic                   Forces (Hartrees/Bohr)
 Number     Number              X              Y              Z
 -------------------------------------------------------------------
    1          7           0.000393607    0.000000000    0.000008463
    2          1          -0.000017366    0.000000000   -0.000060119
    3          6           0.000323399    0.000000000   -0.000107813
    4          1          -0.000097102    0.000000000   -0.000062306
    5          6          -0.000317503    0.000000000   -0.000139180
    6          1          -0.000028599    0.000000000    0.000123927
    7          1           0.000143196    0.000000000   -0.000016966
    8          6          -0.000515123    0.000000000   -0.000208231
    9          7           0.000115491    0.000000000    0.000462225
 -------------------------------------------------------------------
 Cartesian Forces:  Max     0.000515123 RMS     0.000190641

 GradGradGradGradGradGradGradGradGradGradGradGradGradGradGradGradGradGrad
 Berny optimization.
 Internal  Forces:  Max     0.000356797 RMS     0.000097407
 Search for a local minimum.
 Step number   1 out of a maximum of  48
 All quantities printed in internal units (Hartrees-Bohrs-Radians)
 Second derivative matrix not updated -- analytic derivatives used.
     Eigenvalues ---    0.00789   0.01241   0.02043   0.02767   0.06143
     Eigenvalues ---    0.06400   0.09848   0.10595   0.10953   0.11659
     Eigenvalues ---    0.23491   0.24400   0.32599   0.37866   0.38421
     Eigenvalues ---    0.38556   0.39150   0.43492   0.47434   0.48538
     Eigenvalues ---    0.547351000.000001000.000001000.000001000.00000
     Eigenvalues --- 1000.000001000.000001000.000001000.000001000.00000
     Eigenvalues --- 1000.000001000.000001000.000001000.000001000.00000
     Eigenvalues --- 1000.000001000.000001000.00000
 Angle between quadratic step and forces=  25.57 degrees.
 Linear search not attempted -- first point.
 Iteration  1 RMS(Cart)=  0.00030074 RMS(Int)=  0.00000008
 Iteration  2 RMS(Cart)=  0.00000008 RMS(Int)=  0.00000001
 Variable       Old X    -DE/DX   Delta X   Delta X   Delta X     New X
                                 (Linear)    (Quad)   (Total)
    R1        2.64637   0.00026   0.00000   0.00104   0.00104   2.64741
    R2        2.52658  -0.00010   0.00000  -0.00016  -0.00016   2.52643
    R3        1.91020   0.00005   0.00000   0.00011   0.00011   1.91031
    R4        2.03711   0.00012   0.00000   0.00030   0.00030   2.03741
    R5        2.62507   0.00002   0.00000   0.00005   0.00005   2.62512
    R6        2.64095  -0.00018   0.00000  -0.00042  -0.00042   2.64052
    R7        2.03852   0.00011   0.00000   0.00026   0.00026   2.03878
    R8        2.03898   0.00014   0.00000   0.00040   0.00040   2.03938
    R9        2.62218  -0.00036   0.00000  -0.00105  -0.00105   2.62113
    A1        1.84570  -0.00009   0.00000  -0.00035  -0.00035   1.84535
    A2        2.30282   0.00000   0.00000  -0.00011  -0.00011   2.30271
    A3        2.14141   0.00000   0.00000   0.00003   0.00003   2.14144
    A4        1.83896   0.00000   0.00000   0.00007   0.00007   1.83903
    A5        1.92568  -0.00012   0.00000  -0.00037  -0.00037   1.92530
    A6        2.11592  -0.00001   0.00000  -0.00058  -0.00058   2.11534
    A7        2.24159   0.00013   0.00000   0.00095   0.00095   2.24254
    A8        2.19387  -0.00005   0.00000  -0.00031  -0.00031   2.19355
    A9        1.93820   0.00010   0.00000   0.00037   0.00037   1.93857
   A10        2.15112  -0.00005   0.00000  -0.00006  -0.00006   2.15106
   A11        2.20148  -0.00008   0.00000  -0.00046  -0.00046   2.20103
   A12        2.20545  -0.00002   0.00000   0.00018   0.00018   2.20563
   A13        1.87625   0.00011   0.00000   0.00028   0.00028   1.87653
    D1        0.00000   0.00000   0.00000   0.00000   0.00000   0.00000
    D2        3.14159   0.00000   0.00000   0.00000   0.00000   3.14159
    D3        3.14159   0.00000   0.00000   0.00000   0.00000   3.14159
    D4        0.00000   0.00000   0.00000   0.00000   0.00000   0.00000
    D5        3.14159   0.00000   0.00000   0.00000   0.00000   3.14159
    D6        0.00000   0.00000   0.00000   0.00000   0.00000   0.00000
    D7        0.00000   0.00000   0.00000   0.00000   0.00000   0.00000
    D8        3.14159   0.00000   0.00000   0.00000   0.00000   3.14159
    D9        0.00000   0.00000   0.00000   0.00000   0.00000   0.00000
   D10        3.14159   0.00000   0.00000   0.00000   0.00000   3.14159
   D11        3.14159   0.00000   0.00000   0.00000   0.00000   3.14159
   D12        0.00000   0.00000   0.00000   0.00000   0.00000   0.00000
   D13        3.14159   0.00000   0.00000   0.00000   0.00000   3.14159
   D14        0.00000   0.00000   0.00000   0.00000   0.00000   0.00000
   D15        0.00000   0.00000   0.00000   0.00000   0.00000   0.00000
   D16        3.14159   0.00000   0.00000   0.00000   0.00000   3.14159
         Item               Value     Threshold  Converged?
 Maximum Force            0.000357     0.000450     YES
 RMS     Force            0.000097     0.000300     YES
 Maximum Displacement     0.000932     0.001800     YES
 RMS     Displacement     0.000301     0.001200     YES
 Predicted change in Energy=-5.932913D-07
 Optimization completed.
    -- Stationary point found.
                         ----------------------------
                         !   Optimized Parameters   !
                         ! (Angstroms and Degrees)  !
 ------------------------                            -------------------------
 ! Name  Definition              Value          Derivative Info.             !
 -----------------------------------------------------------------------------
 ! R1    R(1,5)                  1.4004         -DE/DX =    0.0003           !
 ! R2    R(1,8)                  1.337          -DE/DX =   -0.0001           !
 ! R3    R(2,9)                  1.0108         -DE/DX =    0.0001           !
 ! R4    R(3,4)                  1.078          -DE/DX =    0.0001           !
 ! R5    R(3,5)                  1.3891         -DE/DX =    0.               !
 ! R6    R(3,9)                  1.3975         -DE/DX =   -0.0002           !
 ! R7    R(5,6)                  1.0787         -DE/DX =    0.0001           !
 ! R8    R(7,8)                  1.079          -DE/DX =    0.0001           !
 ! R9    R(8,9)                  1.3876         -DE/DX =   -0.0004           !
 ! A1    A(5,1,8)              105.7506         -DE/DX =   -0.0001           !
 ! A2    A(4,3,5)              131.9419         -DE/DX =    0.               !
 ! A3    A(4,3,9)              122.6938         -DE/DX =    0.               !
 ! A4    A(5,3,9)              105.3644         -DE/DX =    0.               !
 ! A5    A(1,5,3)              110.3331         -DE/DX =   -0.0001           !
 ! A6    A(1,5,6)              121.2333         -DE/DX =    0.               !
 ! A7    A(3,5,6)              128.4337         -DE/DX =    0.0001           !
 ! A8    A(1,8,7)              125.6992         -DE/DX =   -0.0001           !
 ! A9    A(1,8,9)              111.0505         -DE/DX =    0.0001           !
 ! A10   A(7,8,9)              123.2503         -DE/DX =   -0.0001           !
 ! A11   A(2,9,3)              126.1357         -DE/DX =   -0.0001           !
 ! A12   A(2,9,8)              126.3629         -DE/DX =    0.               !
 ! A13   A(3,9,8)              107.5014         -DE/DX =    0.0001           !
 ! D1    D(8,1,5,3)              0.             -DE/DX =    0.               !
 ! D2    D(8,1,5,6)            180.             -DE/DX =    0.               !
 ! D3    D(5,1,8,7)            180.             -DE/DX =    0.               !
 ! D4    D(5,1,8,9)              0.             -DE/DX =    0.               !
 ! D5    D(4,3,5,1)            180.             -DE/DX =    0.               !
 ! D6    D(4,3,5,6)              0.             -DE/DX =    0.               !
 ! D7    D(9,3,5,1)              0.             -DE/DX =    0.               !
 ! D8    D(9,3,5,6)            180.             -DE/DX =    0.               !
 ! D9    D(4,3,9,2)              0.             -DE/DX =    0.               !
 ! D10   D(4,3,9,8)            180.             -DE/DX =    0.               !
 ! D11   D(5,3,9,2)            180.             -DE/DX =    0.               !
 ! D12   D(5,3,9,8)              0.             -DE/DX =    0.               !
 ! D13   D(1,8,9,2)            180.             -DE/DX =    0.               !
 ! D14   D(1,8,9,3)              0.             -DE/DX =    0.               !
 ! D15   D(7,8,9,2)              0.             -DE/DX =    0.               !
 ! D16   D(7,8,9,3)            180.             -DE/DX =    0.               !
 -----------------------------------------------------------------------------
 GradGradGradGradGradGradGradGradGradGradGradGradGradGradGradGradGradGrad

 1\1\GINC-INDIUM\Freq\RB3LYP\SDD\C3H4N2\RDJ3\02-Jan-2001\0\\#N GEOM=ALL
 CHECK GUESS=TCHECK RB3LYP/SDD FREQ\\1H imidazole C3H4N2 casno=288324\\
 0,1\N,0.5030743923,0.,1.141868276\H,0.4921859782,0.,-2.0733642985\C,-1
 .0352013349,0.,-0.5541346567\H,-1.921163588,0.,-1.1682535929\C,-0.8607
 734644,0.,0.823998898\H,-1.6148938785,0.,1.5953493081\H,2.219948141,0.
 ,-0.157269245\C,1.1486195842,0.,-0.0289715518\N,0.2552191273,0.,-1.090
 699463\\Version=IBM-RS6000-G98RevA.6\State=1-A'\HF=-226.1743142\RMSD=6
 .982e-09\RMSF=1.906e-04\Dipole=-0.17846,0.,-1.6194359\DipoleDeriv=-0.3
 151527,-0.0000921,0.0200839,0.000196,-0.2915937,-0.0000499,0.0195739,-
 0.000469,-0.5117852,0.2045804,0.0000377,-0.0107012,0.0001153,0.3811251
 ,0.0000256,0.0028642,-0.000121,0.1838098,-0.0273296,-0.0002479,-0.2825
 656,-0.0001298,-0.1986451,0.0003478,-0.0894028,-0.0001301,0.1744933,0.
 0284978,0.0000258,-0.0507333,-0.0000204,0.2444078,0.000061,-0.0841545,
 0.0000669,0.0529856,0.1633135,0.0004093,-0.0386478,-0.000095,-0.184418
 1,0.0001657,-0.1088669,0.0000322,0.0738553,0.00846,-0.0000858,0.063214
 ,0.0000745,0.2012229,0.0000789,0.0981702,0.0001007,0.0500458,-0.019475
 9,-0.0001812,0.0372663,-0.0000008,0.2072493,0.0001337,0.041452,0.00001
 73,0.0849225,0.0810952,0.0002182,0.0960059,0.0001448,-0.0821804,-0.000
 2973,0.0159117,0.0004328,0.5354478,-0.1239879,-0.0000841,0.1660776,-0.
 0002846,-0.2771679,-0.0004656,0.1044522,0.0000703,-0.6437745\Polar=48.
 223572,-0.0052782,19.1340811,-0.3733329,-0.011479,46.5968331\PG=CS [SG
 (C3H4N2)]\NImag=0\\0.47272312,0.00000240,0.10337398,-0.06322860,0.0000
 0017,0.52519364,-0.00340115,0.00000007,-0.00710504,0.08308609,0.000000
 39,0.00646640,-0.00000307,0.00000017,0.01539009,-0.00265728,0.00000099
 ,-0.00234639,-0.09673211,0.00000012,0.45819797,-0.03501975,0.00000184,
 -0.01879207,0.00426824,-0.00000003,-0.00735543,0.74216306,-0.00000437,
 0.01865059,-0.00001155,0.00000072,-0.00479713,-0.00000547,-0.00000901,
 0.12151369,-0.08162609,-0.00000291,-0.02472444,0.03077524,-0.00000126,
 0.00013133,0.17157773,0.00000044,0.73094800,0.00174898,-0.00000193,0.0
 0138321,-0.00009363,-0.00000128,0.00024937,-0.26807896,0.00000152,-0.1
 4560672,0.27890621,0.00000058,0.00665202,0.00000051,0.00000035,-0.0010
 9744,-0.00000120,-0.00000171,-0.02526736,-0.00000030,-0.00000027,0.020
 05449,-0.00312594,-0.00000034,-0.00443379,-0.00110443,-0.00000067,0.00
 025670,-0.15690431,0.00000088,-0.16524334,0.15572297,0.00000018,0.1578
 7012,-0.24070995,-0.00000064,-0.01713445,-0.00835008,0.00000244,-0.001
 78280,-0.09875169,0.00001205,-0.02183617,0.00519262,0.00000053,-0.0222
 0956,0.65122759,-0.00000702,-0.07118518,-0.00001276,-0.00000066,0.0029
 3735,0.,-0.00000326,-0.07121507,-0.00000025,0.00000499,0.00035981,0.00
 000250,0.00000983,0.13768804,-0.04406325,0.00000160,-0.09858675,0.0025
 0786,0.00000189,0.00097035,-0.03266130,-0.00000042,-0.37993667,0.00572
 064,-0.00000193,0.00347961,-0.17605282,0.00000324,0.78362141,-0.017161
 46,-0.00000113,0.02071187,0.00073531,-0.00000104,0.00007088,0.00810183
 ,-0.00000113,-0.00921831,-0.00004567,-0.00000091,0.00088988,-0.2012662
 1,0.00000136,0.15617966,0.21434752,-0.00000069,-0.00467366,-0.00000441
 ,0.00000043,0.00166949,-0.00000118,-0.00000178,0.00085313,-0.00000071,
 -0.00000035,-0.00229610,-0.00000003,0.00000356,-0.03018830,0.00000153,
 -0.00000039,0.02326744,-0.01044115,0.00000163,0.01075337,0.00100144,0.
 00000112,0.00009229,0.02109364,0.00000108,-0.00525867,-0.00078193,0.00
 000141,-0.00053959,0.16035706,-0.00000308,-0.22511191,-0.16471744,0.00
 000039,0.22299735,-0.00629052,-0.00000049,-0.00027864,-0.00086550,-0.0
 0000047,-0.00064597,0.00186566,-0.00000249,-0.00230053,-0.00039615,-0.
 00000221,0.00022879,0.00177523,0.00000248,0.00166860,-0.00040176,-0.00
 000023,-0.00013945,0.37977171,-0.00000026,-0.00454751,-0.00000373,0.00
 000054,-0.00117892,-0.00000224,-0.00000352,0.00251968,-0.00000038,-0.0
 0000027,0.00160379,0.00000026,0.00000375,0.00704405,-0.00000081,-0.000
 00099,0.00095412,0.00000144,-0.00000212,0.02093630,0.02877394,-0.00000
 025,-0.00013792,0.00063742,-0.00000013,0.00026577,-0.00121156,0.000000
 12,-0.00572537,-0.00083804,0.00000056,0.00099882,0.00282076,-0.0000008
 5,-0.00397233,0.00129887,-0.00000023,0.00064057,-0.03746688,0.00000034
 ,0.06118947,-0.16429077,0.00000028,0.10773664,0.01578079,-0.00000042,0
 .01588185,-0.09122225,0.00000421,-0.00095840,-0.00191826,0.00000376,0.
 00480154,-0.09000133,-0.00000521,0.02193640,-0.00510926,-0.00000015,-0
 .00452958,-0.36611970,0.00000325,0.03685316,0.89755267,0.00000555,-0.0
 7624287,0.00001049,-0.00000042,-0.00566126,0.00000425,0.00000798,0.017
 15213,0.00000127,-0.00000498,0.00295711,-0.00000380,-0.00000978,0.0105
 6201,0.00000103,-0.00000057,0.00544901,0.00000102,0.00000046,-0.026212
 52,0.00000036,-0.00000239,0.13705236,0.14783809,-0.00000068,-0.3010504
 2,-0.02186570,0.00000237,-0.00930063,-0.03841069,0.00001583,-0.0132498
 2,0.00348414,-0.00000060,-0.00523394,0.06203699,0.00001348,-0.00914031
 ,-0.00156978,0.00000496,0.00068897,0.03232060,0.00000453,-0.05896844,-
 0.09385850,-0.00001441,0.59470057,-0.00759850,-0.00000040,-0.02329293,
 -0.09116006,0.00000024,0.09297150,-0.26332614,-0.00000149,0.05919327,-
 0.01531515,-0.00000012,0.02170106,-0.01911619,-0.00000251,0.06476421,0
 .00079970,-0.00000040,-0.00184261,-0.00933897,-0.00000038,-0.03086768,
 -0.19467188,0.00000416,-0.08997515,0.59972720,0.00000342,0.02150624,0.
 00002436,-0.00000120,-0.01372857,0.00000473,0.00000950,-0.05940966,0.0
 0000411,0.00000257,-0.00296631,0.00000103,-0.00002173,0.01399730,-0.00
 000613,0.00000480,0.00496487,-0.00000500,0.00000508,-0.00111899,0.0000
 0007,-0.00000331,-0.06505598,-0.00002548,0.00000088,0.10181111,0.02853
 028,-0.00000020,-0.10466730,0.09188531,-0.00000038,-0.44826739,0.06266
 400,-0.00000091,-0.13694102,-0.01933363,0.00000138,0.01284541,0.013800
 99,-0.00000227,-0.07132340,-0.00364564,-0.00000032,-0.00426239,0.00661
 348,0.00000059,0.00570942,-0.08786312,-0.00000022,-0.19844599,-0.09265
 168,0.00000232,0.94535265\\-0.00039361,0.,-0.00000846,0.00001737,0.,0.
 00006012,-0.00032340,0.,0.00010781,0.00009710,0.,0.00006231,0.00031750
 ,0.,0.00013918,0.00002860,0.,-0.00012393,-0.00014320,0.,0.00001697,0.0
 0051512,0.,0.00020823,-0.00011549,0.,-0.00046223\\\@

 LENDING MONEY TO FRIENDS CAUSES THEM TO LOSE THEIR MEMORIES.

    --  PETER'S THEORY OF RECIPROCAL INHIBITION OF FISCAL RECALL
 Job cpu time:  0 days  0 hours  3 minutes 31.8 seconds.
 File lengths (MBytes):  RWF=   16 Int=    0 D2E=    0 Chk=    8 Scr=    1
 Normal termination of Gaussian 98.
