 Gaussian 98, Revision A.6,
 Gaussian 98:  IBM-RS6000-G98RevA.6 19-Oct-1998

 -----------------------
 #B3LYP/LANL2DZ opt freq
 -----------------------

 --------------------------------
 1H imidazole C3H4N2 casno=288324
 --------------------------------
 Symbolic Z-matrix:
 Charge =  0 Multiplicity = 1

 SCF Done:  E(RB+HF-LYP) =  -226.092715365     A.U. after   16 cycles
 SCF Done:  E(RB+HF-LYP) =  -226.158721038     A.U. after   14 cycles
 SCF Done:  E(RB+HF-LYP) =  -226.173232082     A.U. after   14 cycles
 SCF Done:  E(RB+HF-LYP) =  -226.173632677     A.U. after   12 cycles
 SCF Done:  E(RB+HF-LYP) =  -226.173765045     A.U. after   10 cycles
 SCF Done:  E(RB+HF-LYP) =  -226.173777996     A.U. after    9 cycles
 Optimization completed.
    -- Stationary point found.
 Normal termination of Gaussian 98.

 -------------------------------------------------
 #N Geom=AllCheck Guess=TCheck RB3LYP/LANL2DZ Freq
 -------------------------------------------------

 1H imidazole C3H4N2 casno=288324
 --------------------------------
 Redundant internal coordinates taken from checkpointfile:
 /wrk/rdj3/Gau-15388.chk
 Charge =  0 Multiplicity = 1

                         Standard orientation:
 ---------------------------------------------------------------------
 Center     Atomic     Atomic              Coordinates (Angstroms)
 Number     Number      Type              X           Y           Z
 ---------------------------------------------------------------------
    1          7             0       -0.749893   -0.997053    0.000000
    2          1             0       -0.007004    2.130783    0.000000
    3          6             0        1.134063    0.303611    0.000000
    4          1             0        2.136723    0.699500    0.000000
    5          6             0        0.650285   -0.998252    0.000000
    6          1             0        1.208954   -1.921063    0.000000
    7          1             0       -2.125563    0.658801    0.000000
    8          6             0       -1.111658    0.289843    0.000000
    9          7             0        0.000000    1.120019    0.000000
 ---------------------------------------------------------------------

 SCF Done:  E(RB+HF-LYP) =  -226.173777996     A.U. after    1 cycles

  The electronic state is 1-A'.
 Alpha  occ. eigenvalues --  -14.39504 -14.32274 -10.25317 -10.23284 -10.21092
 Alpha  occ. eigenvalues --   -1.02283  -0.87997  -0.75304  -0.62477  -0.59666
 Alpha  occ. eigenvalues --   -0.56968  -0.45031  -0.44750  -0.43273  -0.41798
 Alpha  occ. eigenvalues --   -0.28709  -0.26103  -0.24113
 Alpha virt. eigenvalues --    0.00911   0.05077   0.07184   0.13444   0.13936
 Alpha virt. eigenvalues --    0.16856   0.18274   0.21414   0.24075   0.29469
 Alpha virt. eigenvalues --    0.29905   0.33944   0.34734   0.37191   0.38722

  Exact polarizability:  47.931  -0.677  46.811  -0.002  -0.008  18.853
 Approx polarizability:  74.306   1.981  79.061   0.000   0.000  23.487

                     1                      2                      3
                    A"                     A"                     A"
 Frequencies --   627.8827               663.6815               678.7884
 Red. masses --     3.0829                 1.4690                 1.9540
 Frc consts  --     0.7161                 0.3812                 0.5305
 IR Inten    --    31.0446               129.4420                 8.1911
 Raman Activ --     0.0000                 0.0000                 0.0000

                     4                      5                      6
                    A"                     A"                     A"
 Frequencies --   763.6108               822.6570               891.0810
 Red. masses --     1.2416                 1.4158                 1.4141
 Frc consts  --     0.4266                 0.5645                 0.6616
 IR Inten    --    60.4321                54.9515                 1.9458
 Raman Activ --     0.0000                 0.0000                 0.0000

                     7                      8                      9
                    A'                     A'                     A'
 Frequencies --   905.7807               943.5926              1065.1301
 Red. masses --     5.7307                 4.7511                 1.7693
 Frc consts  --     2.7702                 2.4924                 1.1827
 IR Inten    --     7.8870                 3.7826                47.9320
 Raman Activ --     0.0000                 0.0000                 0.0000

                    10                     11                     12
                    A'                     A'                     A'
 Frequencies --  1099.5345              1136.0104              1163.8590
 Red. masses --     1.5790                 5.6543                 1.4360
 Frc consts  --     1.1248                 4.2992                 1.1460
 IR Inten    --    24.1909                 7.5094                 0.2988
 Raman Activ --     0.0000                 0.0000                 0.0000

                    13                     14                     15
                    A'                     A'                     A'
 Frequencies --  1278.5278              1354.6531              1400.9607
 Red. masses --     1.4281                 3.1316                 2.6040
 Frc consts  --     1.3754                 3.3859                 3.0112
 IR Inten    --     0.6873                 7.0890                15.5470
 Raman Activ --     0.0000                 0.0000                 0.0000

                    16                     17                     18
                    A'                     A'                     A'
 Frequencies --  1477.8775              1537.4323              3298.1983
 Red. masses --     2.8759                 2.8245                 1.0923
 Frc consts  --     3.7009                 3.9335                 7.0007
 IR Inten    --    11.9588                15.0825                 3.4197
 Raman Activ --     0.0000                 0.0000                 0.0000

                    19                     20                     21
                    A'                     A'                     A'
 Frequencies --  3308.6733              3328.6786              3684.0419
 Red. masses --     1.0982                 1.1099                 1.0827
 Frc consts  --     7.0834                 7.2454                 8.6581
 IR Inten    --     2.1470                 2.4250                51.5573
 Raman Activ --     0.0000                 0.0000                 0.0000

 - Thermochemistry -
 -------------------
 Temperature   298.150 Kelvin.  Pressure   1.00000 Atm.
 Atom  1 has atomic number  7 and mass  14.00307

 Molecular mass:    68.03745 amu.
 Principal axes and moments of inertia in atomic units:
                           1         2         3
     EIGENVALUES --   190.97374 196.72609 387.69983
           X            0.45927   0.88830   0.00000
           Y            0.88830  -0.45927   0.00000
           Z            0.00000   0.00000   1.00000
 THIS MOLECULE IS AN ASYMMETRIC TOP.
 ROTATIONAL SYMMETRY NUMBER  1.
 ROTATIONAL TEMPERATURES (KELVIN)      0.45354     0.44027     0.22340
 ROTATIONAL CONSTANTS (GHZ)            9.45021     9.17388     4.65500
 Zero-point vibrational energy     187997.1 (Joules/Mol)
                                   44.93238 (Kcal/Mol)
 VIBRATIONAL TEMPERATURES:    903.38   954.88   976.62  1098.66  1183.61
          (KELVIN)           1282.06  1303.21  1357.61  1532.48  1581.98
                             1634.46  1674.52  1839.51  1949.03  2015.66
                             2126.32  2212.01  4745.34  4760.42  4789.20
                             5300.48

 Zero-point correction=                           0.071604 (Hartree/Particle)
 Thermal correction to Energy=                    0.075281
 Thermal correction to Enthalpy=                  0.076225
 Thermal correction to Gibbs Free Energy=         0.045338
 Sum of electronic and zero-point Energies=           -226.102174
 Sum of electronic and thermal Energies=              -226.098497
 Sum of electronic and thermal Enthalpies=            -226.097553
 Sum of electronic and thermal Free Energies=         -226.128440

                     E (Thermal)             CV                S
                      KCAL/MOL        CAL/MOL-KELVIN    CAL/MOL-KELVIN
 TOTAL                   47.239             13.087             65.006
 ELECTRONIC               0.000              0.000              0.000
 TRANSLATIONAL            0.889              2.981             38.570
 ROTATIONAL               0.889              2.981             24.192
 VIBRATIONAL             45.462              7.125              2.244
                       Q            LOG10(Q)             LN(Q)
 TOTAL BOT       0.139965D-20        -20.853982        -48.018068
 TOTAL V=0       0.120639D+13         12.081488         27.818654
 VIB (BOT)       0.146866D-32        -32.833079        -75.600959
 VIB (V=0)       0.126587D+01          0.102390          0.235763
 ELECTRONIC      0.100000D+01          0.000000          0.000000
 TRANSLATIONAL   0.220588D+08          7.343582         16.909224
 ROTATIONAL      0.432031D+05          4.635515         10.673668
 ***** Axes restored to original set *****
 -------------------------------------------------------------------
 Center     Atomic                   Forces (Hartrees/Bohr)
 Number     Number              X              Y              Z
 -------------------------------------------------------------------
    1          7           0.000393407    0.000000000    0.000008413
    2          1          -0.000017328    0.000000000   -0.000060015
    3          6           0.000321318    0.000000000   -0.000110688
    4          1          -0.000095590    0.000000000   -0.000061449
    5          6          -0.000318864    0.000000000   -0.000136112
    6          1          -0.000027404    0.000000000    0.000122651
    7          1           0.000141801    0.000000000   -0.000016812
    8          6          -0.000511936    0.000000000   -0.000208091
    9          7           0.000114597    0.000000000    0.000462103
 -------------------------------------------------------------------
 Cartesian Forces:  Max     0.000511936 RMS     0.000190087

 GradGradGradGradGradGradGradGradGradGradGradGradGradGradGradGradGradGrad
 Berny optimization.
 Internal  Forces:  Max     0.000355743 RMS     0.000097168
 Search for a local minimum.
 Step number   1 out of a maximum of  48
 All quantities printed in internal units (Hartrees-Bohrs-Radians)
 Second derivative matrix not updated -- analytic derivatives used.
     Eigenvalues ---    0.00791   0.01241   0.02041   0.02766   0.06148
     Eigenvalues ---    0.06402   0.09854   0.10600   0.10958   0.11665
     Eigenvalues ---    0.23504   0.24410   0.32610   0.37864   0.38402
     Eigenvalues ---    0.38535   0.39160   0.43521   0.47464   0.48549
     Eigenvalues ---    0.547741000.000001000.000001000.000001000.00000
     Eigenvalues --- 1000.000001000.000001000.000001000.000001000.00000
     Eigenvalues --- 1000.000001000.000001000.000001000.000001000.00000
     Eigenvalues --- 1000.000001000.000001000.00000
 Angle between quadratic step and forces=  25.58 degrees.
 Linear search not attempted -- first point.
 Iteration  1 RMS(Cart)=  0.00030082 RMS(Int)=  0.00000008
 Iteration  2 RMS(Cart)=  0.00000008 RMS(Int)=  0.00000001
 Variable       Old X    -DE/DX   Delta X   Delta X   Delta X     New X
                                 (Linear)    (Quad)   (Total)
    R1        2.64595   0.00026   0.00000   0.00104   0.00104   2.64699
    R2        2.52614  -0.00010   0.00000  -0.00015  -0.00015   2.52599
    R3        1.91011   0.00005   0.00000   0.00011   0.00011   1.91022
    R4        2.03710   0.00011   0.00000   0.00030   0.00030   2.03740
    R5        2.62453   0.00003   0.00000   0.00006   0.00006   2.62459
    R6        2.64063  -0.00018   0.00000  -0.00043  -0.00043   2.64021
    R7        2.03853   0.00011   0.00000   0.00025   0.00025   2.03878
    R8        2.03892   0.00014   0.00000   0.00039   0.00039   2.03931
    R9        2.62187  -0.00036   0.00000  -0.00105  -0.00105   2.62082
    A1        1.84569  -0.00009   0.00000  -0.00035  -0.00035   1.84534
    A2        2.30263   0.00000   0.00000  -0.00010  -0.00010   2.30253
    A3        2.14159   0.00000   0.00000   0.00003   0.00003   2.14162
    A4        1.83896   0.00000   0.00000   0.00007   0.00007   1.83903
    A5        1.92573  -0.00012   0.00000  -0.00037  -0.00037   1.92536
    A6        2.11603  -0.00001   0.00000  -0.00058  -0.00058   2.11545
    A7        2.24142   0.00013   0.00000   0.00095   0.00095   2.24238
    A8        2.19384  -0.00005   0.00000  -0.00031  -0.00031   2.19353
    A9        1.93820   0.00010   0.00000   0.00037   0.00037   1.93857
   A10        2.15115  -0.00005   0.00000  -0.00006  -0.00006   2.15109
   A11        2.20168  -0.00008   0.00000  -0.00046  -0.00046   2.20122
   A12        2.20531  -0.00002   0.00000   0.00018   0.00018   2.20549
   A13        1.87619   0.00011   0.00000   0.00028   0.00028   1.87648
    D1        0.00000   0.00000   0.00000   0.00000   0.00000   0.00000
    D2        3.14159   0.00000   0.00000   0.00000   0.00000   3.14159
    D3        3.14159   0.00000   0.00000   0.00000   0.00000   3.14159
    D4        0.00000   0.00000   0.00000   0.00000   0.00000   0.00000
    D5        3.14159   0.00000   0.00000   0.00000   0.00000   3.14159
    D6        0.00000   0.00000   0.00000   0.00000   0.00000   0.00000
    D7        0.00000   0.00000   0.00000   0.00000   0.00000   0.00000
    D8        3.14159   0.00000   0.00000   0.00000   0.00000   3.14159
    D9        0.00000   0.00000   0.00000   0.00000   0.00000   0.00000
   D10        3.14159   0.00000   0.00000   0.00000   0.00000   3.14159
   D11        3.14159   0.00000   0.00000   0.00000   0.00000   3.14159
   D12        0.00000   0.00000   0.00000   0.00000   0.00000   0.00000
   D13        3.14159   0.00000   0.00000   0.00000   0.00000   3.14159
   D14        0.00000   0.00000   0.00000   0.00000   0.00000   0.00000
   D15        0.00000   0.00000   0.00000   0.00000   0.00000   0.00000
   D16        3.14159   0.00000   0.00000   0.00000   0.00000   3.14159
         Item               Value     Threshold  Converged?
 Maximum Force            0.000356     0.000450     YES
 RMS     Force            0.000097     0.000300     YES
 Maximum Displacement     0.000931     0.001800     YES
 RMS     Displacement     0.000301     0.001200     YES
 Predicted change in Energy=-5.906322D-07
 Optimization completed.
    -- Stationary point found.
                         ----------------------------
                         !   Optimized Parameters   !
                         ! (Angstroms and Degrees)  !
 ------------------------                            -------------------------
 ! Name  Definition              Value          Derivative Info.             !
 -----------------------------------------------------------------------------
 ! R1    R(1,5)                  1.4002         -DE/DX =    0.0003           !
 ! R2    R(1,8)                  1.3368         -DE/DX =   -0.0001           !
 ! R3    R(2,9)                  1.0108         -DE/DX =    0.0001           !
 ! R4    R(3,4)                  1.078          -DE/DX =    0.0001           !
 ! R5    R(3,5)                  1.3888         -DE/DX =    0.               !
 ! R6    R(3,9)                  1.3974         -DE/DX =   -0.0002           !
 ! R7    R(5,6)                  1.0787         -DE/DX =    0.0001           !
 ! R8    R(7,8)                  1.079          -DE/DX =    0.0001           !
 ! R9    R(8,9)                  1.3874         -DE/DX =   -0.0004           !
 ! A1    A(5,1,8)              105.7505         -DE/DX =   -0.0001           !
 ! A2    A(4,3,5)              131.9313         -DE/DX =    0.               !
 ! A3    A(4,3,9)              122.704          -DE/DX =    0.               !
 ! A4    A(5,3,9)              105.3647         -DE/DX =    0.               !
 ! A5    A(1,5,3)              110.3362         -DE/DX =   -0.0001           !
 ! A6    A(1,5,6)              121.2397         -DE/DX =    0.               !
 ! A7    A(3,5,6)              128.4241         -DE/DX =    0.0001           !
 ! A8    A(1,8,7)              125.6977         -DE/DX =   -0.0001           !
 ! A9    A(1,8,9)              111.0506         -DE/DX =    0.0001           !
 ! A10   A(7,8,9)              123.2517         -DE/DX =    0.               !
 ! A11   A(2,9,3)              126.147          -DE/DX =   -0.0001           !
 ! A12   A(2,9,8)              126.355          -DE/DX =    0.               !
 ! A13   A(3,9,8)              107.498          -DE/DX =    0.0001           !
 ! D1    D(8,1,5,3)              0.             -DE/DX =    0.               !
 ! D2    D(8,1,5,6)            180.             -DE/DX =    0.               !
 ! D3    D(5,1,8,7)            180.             -DE/DX =    0.               !
 ! D4    D(5,1,8,9)              0.             -DE/DX =    0.               !
 ! D5    D(4,3,5,1)            180.             -DE/DX =    0.               !
 ! D6    D(4,3,5,6)              0.             -DE/DX =    0.               !
 ! D7    D(9,3,5,1)              0.             -DE/DX =    0.               !
 ! D8    D(9,3,5,6)            180.             -DE/DX =    0.               !
 ! D9    D(4,3,9,2)              0.             -DE/DX =    0.               !
 ! D10   D(4,3,9,8)            180.             -DE/DX =    0.               !
 ! D11   D(5,3,9,2)            180.             -DE/DX =    0.               !
 ! D12   D(5,3,9,8)              0.             -DE/DX =    0.               !
 ! D13   D(1,8,9,2)            180.             -DE/DX =    0.               !
 ! D14   D(1,8,9,3)              0.             -DE/DX =    0.               !
 ! D15   D(7,8,9,2)              0.             -DE/DX =    0.               !
 ! D16   D(7,8,9,3)            180.             -DE/DX =    0.               !
 -----------------------------------------------------------------------------
 GradGradGradGradGradGradGradGradGradGradGradGradGradGradGradGradGradGrad

 1\1\GINC-INDIUM\Freq\RB3LYP\LANL2DZ\C3H4N2\RDJ3\27-Oct-2000\0\\#N GEOM
 =ALLCHECK GUESS=TCHECK RB3LYP/LANL2DZ FREQ\\1H imidazole C3H4N2 casno=
 288324\\0,1\N,0.5030134397,0.,1.1416792879\H,0.4922754887,0.,-2.073149
 3683\C,-1.0350662131,0.,-0.553999652\H,-1.9211625728,0.,-1.1679125278\
 C,-0.8606147716,0.,0.8238443409\H,-1.6148353922,0.,1.595105253\H,2.219
 7574309,0.,-0.1572087691\C,1.1484570116,0.,-0.0289522682\N,0.255173543
 7,0.,-1.0905634468\\Version=IBM-RS6000-G98RevA.6\State=1-A'\HF=-226.17
 3778\RMSD=7.623e-09\RMSF=1.901e-04\Dipole=-0.1789757,0.,-1.6198996\Dip
 oleDeriv=-0.3132159,0.0000091,0.0196553,-0.0001859,-0.2895745,0.000330
 8,0.0190881,-0.0001204,-0.5108345,0.204723,0.0000534,-0.0106069,0.0000
 883,0.3822465,0.000015,0.0030017,-0.0001839,0.1848843,-0.028321,-0.000
 1718,-0.2827323,-0.0000565,-0.2003567,0.000493,-0.0905287,0.000039,0.1
 754106,0.0295372,-0.0000548,-0.0509673,-0.0000617,0.2454452,0.000043,-
 0.0835655,0.0000157,0.0530788,0.1619427,0.0001066,-0.0388671,0.0001021
 ,-0.1860058,-0.0001108,-0.1084304,-0.0001564,0.0727307,0.008788,-0.000
 0384,0.0632335,0.0000208,0.202383,0.0000385,0.0980218,0.0000881,0.0503
 612,-0.0182088,-0.0002032,0.0372515,-0.0000688,0.208613,0.0001578,0.04
 15934,0.000045,0.0854787,0.0781543,0.0003601,0.0966978,0.0003405,-0.08
 57395,-0.0005987,0.0160206,0.0001163,0.5336488,-0.1233986,-0.0000609,0
 .1663354,-0.0001788,-0.2770115,-0.0003686,0.1047991,0.0001566,-0.64475
 84\Polar=48.1730869,-0.0001856,18.8525634,-0.3582568,-0.0087424,46.568
 8681\PG=CS [SG(C3H4N2)]\NImag=0\\0.47307657,0.00000085,0.10342027,-0.0
 6330957,0.00000626,0.52504722,-0.00339493,0.00000438,-0.00709998,0.083
 15886,0.00000145,0.00646648,-0.00000027,0.00000040,0.01543480,-0.00263
 477,-0.00001627,-0.00234421,-0.09680270,-0.00000065,0.45827174,-0.0350
 6466,-0.00001336,-0.01890540,0.00427013,-0.00000012,-0.00740463,0.7426
 2117,-0.00000974,0.01868278,-0.00002649,0.00000025,-0.00476152,-0.0000
 0371,-0.00001012,0.12163405,-0.08179508,0.00001007,-0.02475439,0.03076
 490,-0.00000028,0.00012653,0.17165537,0.00000138,0.73140953,0.00174856
 ,-0.00000423,0.00140298,-0.00009434,-0.00000204,0.00026464,-0.26803597
 ,0.00000202,-0.14549759,0.27884948,0.00000142,0.00665258,0.00000354,0.
 00000065,-0.00110208,-0.00000254,-0.00000131,-0.02525860,0.00000113,-0
 .00000095,0.02003840,-0.00312985,-0.00000185,-0.00440524,-0.00109985,-
 0.00000111,0.00026747,-0.15679995,0.00000132,-0.16513592,0.15559822,-0
 .00000028,0.15776492,-0.24085610,-0.00000338,-0.01693920,-0.00834498,0
 .00000020,-0.00175369,-0.09885698,0.00002049,-0.02179842,0.00521618,-0
 .00000183,-0.02219590,0.65148052,-0.00000386,-0.07124785,-0.00000968,-
 0.00000269,0.00294388,0.00000955,0.00000602,-0.07133986,-0.00000571,0.
 00000438,0.00038581,0.00000227,0.00000593,0.13776952,-0.04396254,-0.00
 000615,-0.09853136,0.00251827,0.00000060,0.00095244,-0.03274784,0.0000
 0511,-0.38034670,0.00569683,-0.00000350,0.00343141,-0.17609869,0.00000
 577,0.78405223,-0.01718188,0.00000505,0.02071588,0.00073796,-0.0000008
 4,0.00005450,0.00811221,0.00000094,-0.00920600,-0.00005008,-0.00000072
 ,0.00088018,-0.20120270,-0.00000119,0.15604466,0.21427212,0.00000057,-
 0.00465963,0.00000034,0.00000059,0.00166445,-0.00000163,-0.00000115,0.
 00087254,0.00000067,-0.00000071,-0.00230995,-0.00000015,-0.00000055,-0
 .03018016,-0.00000063,0.00000040,0.02325564,-0.01043761,-0.00000224,0.
 01074879,0.00099627,0.00000132,0.00011317,0.02105624,-0.00000225,-0.00
 531363,-0.00077261,0.00000146,-0.00052572,0.16023390,-0.00000107,-0.22
 492678,-0.16457077,0.00000007,0.22282611,-0.00629882,-0.00000046,-0.00
 027267,-0.00086614,-0.00000122,-0.00064622,0.00186561,-0.00000406,-0.0
 0228862,-0.00039336,-0.00000204,0.00022324,0.00177542,0.00000164,0.001
 66194,-0.00040631,-0.00000049,-0.00013260,0.37959899,0.,-0.00452805,-0
 .00000163,0.00000114,-0.00118242,-0.00000460,-0.00000445,0.00250989,0.
 00000238,-0.00000105,0.00160661,-0.00000014,0.00000160,0.00701906,-0.0
 0000270,0.00000019,0.00096198,0.00000062,-0.00000263,0.02092192,0.0288
 1546,-0.00000052,-0.00017005,0.00063741,0.00000014,0.00025938,-0.00122
 484,-0.00000047,-0.00572958,-0.00083076,0.00000073,0.00100279,0.002834
 75,-0.00000040,-0.00396502,0.00129291,0.00000005,0.00064179,-0.0374439
 8,0.00000050,0.06123768,-0.16443975,0.00001063,0.10772711,0.01576090,0
 .00000141,0.01587721,-0.09133707,0.00000124,-0.00096275,-0.00191224,0.
 00000518,0.00479928,-0.09010474,-0.00000918,0.02198904,-0.00508262,0.0
 0000144,-0.00455632,-0.36592293,0.00000557,0.03681660,0.89784377,0.000
 00883,-0.07629835,0.00001099,-0.00000314,-0.00563091,0.00001481,0.0000
 1738,0.01723989,-0.00000909,-0.00000228,0.00293454,-0.00000232,-0.0000
 0990,0.01062038,0.00000428,-0.00000635,0.00541257,0.00000556,0.0000014
 5,-0.02620730,0.00000076,-0.00000889,0.13712159,0.14790720,0.00000925,
 -0.30072141,-0.02190286,-0.00000007,-0.00924198,-0.03838022,0.00002741
 ,-0.01322082,0.00346547,-0.00000263,-0.00526700,0.06191964,0.00000145,
 -0.00927742,-0.00156298,0.00000059,0.00069725,0.03231349,0.00000398,-0
 .05897182,-0.09378977,-0.00002425,0.59451187,-0.00758899,0.00000051,-0
 .02331914,-0.09122745,0.00000076,0.09304565,-0.26357443,-0.00000102,0.
 05912820,-0.01532823,-0.00000039,0.02172462,-0.01910663,-0.00000103,0.
 06489834,0.00080131,-0.00000011,-0.00181652,-0.00935246,-0.00000038,-0
 .03089755,-0.19480532,0.00000291,-0.08996999,0.60018222,0.00000048,0.0
 2151176,0.00001695,-0.00000158,-0.01383270,0.00000505,0.00000711,-0.05
 957918,-0.00000057,0.00000486,-0.00294732,0.00000227,-0.00001256,0.014
 02922,-0.00000277,0.00000252,0.00498256,-0.00000347,0.00000782,-0.0011
 0169,-0.00000078,-0.00000739,-0.06519242,-0.00001573,-0.00000125,0.102
 12978,0.02854677,0.00000145,-0.10486935,0.09198854,0.00000031,-0.44840
 455,0.06275126,-0.00000229,-0.13703501,-0.01932720,0.00000208,0.012867
 28,0.01379760,-0.00000218,-0.07138879,-0.00364839,0.00000069,-0.004260
 98,0.00658542,0.00000160,0.00569482,-0.08790040,-0.00000074,-0.1985086
 7,-0.09279362,-0.00000094,0.94590522\\-0.00039341,0.,-0.00000841,0.000
 01733,0.,0.00006002,-0.00032132,0.,0.00011069,0.00009559,0.,0.00006145
 ,0.00031886,0.,0.00013611,0.00002740,0.,-0.00012265,-0.00014180,0.,0.0
 0001681,0.00051194,0.,0.00020809,-0.00011460,0.,-0.00046210\\\@

 YE HAVE SOWN MUCH, AND BRING IN LITTLE.
 YE EAT, BUT YE HAVE NOT ENOUGH.
 YE DRINK, BUT YE ARE NOT FILLED WITH DRINK.
 YE CLOTHE YOU, BUT THERE IS NONE WARM.
 AND HE THAT EARNETH WAGES EARNETH WAGES TO PUT
 IT INTO A BAG WITH HOLES.
                                     HAGGAI I,6
 Job cpu time:  0 days  0 hours  3 minutes 13.4 seconds.
 File lengths (MBytes):  RWF=   17 Int=    0 D2E=    0 Chk=    8 Scr=    1
 Normal termination of Gaussian 98.
