 Gaussian 98, Revision A.6,
 Gaussian 98:  IBM-RS6000-G98RevA.6 19-Oct-1998

 -------------------------
 #B3LYP/CEP-121G* opt freq
 -------------------------

 --------------------------------
 1H imidazole C3H4N2 casno=288324
 --------------------------------
 Symbolic Z-matrix:
 Charge =  0 Multiplicity = 1

 SCF Done:  E(RB+HF-LYP) =  -39.0827067042     A.U. after   16 cycles
 SCF Done:  E(RB+HF-LYP) =  -39.1440030596     A.U. after   13 cycles
 SCF Done:  E(RB+HF-LYP) =  -39.1566216557     A.U. after   13 cycles
 SCF Done:  E(RB+HF-LYP) =  -39.1569713047     A.U. after   11 cycles
 SCF Done:  E(RB+HF-LYP) =  -39.1570891772     A.U. after   10 cycles
 SCF Done:  E(RB+HF-LYP) =  -39.1570997240     A.U. after    9 cycles
 Optimization completed.
    -- Stationary point found.
 Normal termination of Gaussian 98.

 -----------------------------------------------------
 #N Geom=AllCheck Guess=TCheck RB3LYP/CEP-121G(d) Freq
 -----------------------------------------------------

 1H imidazole C3H4N2 casno=288324
 --------------------------------
 Redundant internal coordinates taken from checkpointfile:
 /wrk/rdj3/Gau-18054.chk
 Charge =  0 Multiplicity = 1

                         Standard orientation:
 ---------------------------------------------------------------------
 Center     Atomic     Atomic              Coordinates (Angstroms)
 Number     Number      Type              X           Y           Z
 ---------------------------------------------------------------------
    1          7             0       -0.759301   -1.009861    0.000000
    2          1             0       -0.003067    2.105763    0.000000
    3          6             0        1.125086    0.273416    0.000000
    4          1             0        2.130413    0.674493    0.000000
    5          6             0        0.628186   -1.016223    0.000000
    6          1             0        1.186559   -1.945593    0.000000
    7          1             0       -2.117168    0.652906    0.000000
    8          6             0       -1.103330    0.267097    0.000000
    9          7             0        0.000000    1.092915    0.000000
 ---------------------------------------------------------------------

 SCF Done:  E(RB+HF-LYP) =  -39.1570997240     A.U. after    1 cycles

  The electronic state is 1-A'.
 Alpha  occ. eigenvalues --   -1.01752  -0.87600  -0.75018  -0.62209  -0.59392
 Alpha  occ. eigenvalues --   -0.56593  -0.44425  -0.44239  -0.42956  -0.41132
 Alpha  occ. eigenvalues --   -0.28492  -0.27433  -0.23303
 Alpha virt. eigenvalues --    0.01802   0.02298   0.05775   0.07424   0.07921
 Alpha virt. eigenvalues --    0.09712   0.15302   0.17855   0.19198   0.22195
 Alpha virt. eigenvalues --    0.29134   0.29266   0.31000   0.33559   0.33719

  Exact polarizability:  52.614  -0.936  50.026   0.006  -0.001  25.400
 Approx polarizability:  80.352   1.730  82.474   0.000   0.000  37.162

                     1                      2                      3
                    A"                     A"                     A"
 Frequencies --   497.3917               635.4576               671.5166
 Red. masses --     1.5679                 2.3305                 3.0448
 Frc consts  --     0.2285                 0.5545                 0.8090
 IR Inten    --    93.8169                12.5007                 2.2431
 Raman Activ --     0.0000                 0.0000                 0.0000

                     4                      5                      6
                    A"                     A"                     A"
 Frequencies --   716.2053               796.9934               850.5775
 Red. masses --     1.2226                 1.3143                 1.3182
 Frc consts  --     0.3695                 0.4919                 0.5619
 IR Inten    --    37.6823                51.5790                 6.3240
 Raman Activ --     0.0000                 0.0000                 0.0000

                     7                      8                      9
                    A'                     A'                     A'
 Frequencies --   890.3127               928.9956              1062.2750
 Red. masses --     5.3455                 4.5463                 1.6443
 Frc consts  --     2.4965                 2.3117                 1.0932
 IR Inten    --     8.2318                 2.2381                42.2518
 Raman Activ --     0.0000                 0.0000                 0.0000

                    10                     11                     12
                    A'                     A'                     A'
 Frequencies --  1074.8299              1133.2324              1143.7932
 Red. masses --     1.5797                 1.3899                 6.6590
 Frc consts  --     1.0752                 1.0516                 5.1328
 IR Inten    --    17.7163                 4.9899                 4.8752
 Raman Activ --     0.0000                 0.0000                 0.0000

                    13                     14                     15
                    A'                     A'                     A'
 Frequencies --  1272.7404              1348.3697              1411.1379
 Red. masses --     1.3761                 3.3737                 2.8995
 Frc consts  --     1.3133                 3.6138                 3.4018
 IR Inten    --     0.4215                 6.3254                13.8242
 Raman Activ --     0.0000                 0.0000                 0.0000

                    16                     17                     18
                    A'                     A'                     A'
 Frequencies --  1486.0854              1539.5265              3228.9331
 Red. masses --     2.9081                 3.0895                 1.0921
 Frc consts  --     3.7839                 4.3143                 6.7086
 IR Inten    --    17.9068                13.3908                10.4772
 Raman Activ --     0.0000                 0.0000                 0.0000

                    19                     20                     21
                    A'                     A'                     A'
 Frequencies --  3232.9824              3258.4871              3630.7976
 Red. masses --     1.0966                 1.1039                 1.0815
 Frc consts  --     6.7534                 6.9058                 8.4003
 IR Inten    --     3.0720                 5.3609                36.6460
 Raman Activ --     0.0000                 0.0000                 0.0000

 - Thermochemistry -
 -------------------
 Temperature   298.150 Kelvin.  Pressure   1.00000 Atm.
 Atom  1 has atomic number  7 and mass  14.00307

 Molecular mass:    68.03745 amu.
 Principal axes and moments of inertia in atomic units:
                           1         2         3
     EIGENVALUES --   187.80941 195.24550 383.05491
           X            0.48325   0.87548   0.00000
           Y            0.87548  -0.48325   0.00000
           Z            0.00000   0.00000   1.00000
 THIS MOLECULE IS AN ASYMMETRIC TOP.
 ROTATIONAL SYMMETRY NUMBER  1.
 ROTATIONAL TEMPERATURES (KELVIN)      0.46118     0.44361     0.22611
 ROTATIONAL CONSTANTS (GHZ)            9.60943     9.24345     4.71144
 Zero-point vibrational energy     184288.6 (Joules/Mol)
                                   44.04603 (Kcal/Mol)
 WARNING-- EXPLICIT CONSIDERATION OF   1 DEGREES OF FREEDOM AS
           VIBRATIONS MAY CAUSE SIGNIFICANT ERROR
 VIBRATIONAL TEMPERATURES:    715.63   914.28   966.16  1030.45  1146.69
          (KELVIN)           1223.78  1280.95  1336.61  1528.37  1546.43
                             1630.46  1645.65  1831.18  1939.99  2030.30
                             2138.13  2215.02  4645.69  4651.51  4688.21
                             5223.88

 Zero-point correction=                           0.070192 (Hartree/Particle)
 Thermal correction to Energy=                    0.074009
 Thermal correction to Enthalpy=                  0.074953
 Thermal correction to Gibbs Free Energy=         0.043878
 Sum of electronic and zero-point Energies=            -39.086908
 Sum of electronic and thermal Energies=               -39.083091
 Sum of electronic and thermal Enthalpies=             -39.082147
 Sum of electronic and thermal Free Energies=          -39.113221

                     E (Thermal)             CV                S
                      KCAL/MOL        CAL/MOL-KELVIN    CAL/MOL-KELVIN
 TOTAL                   46.441             13.707             65.402
 ELECTRONIC               0.000              0.000              0.000
 TRANSLATIONAL            0.889              2.981             38.570
 ROTATIONAL               0.889              2.981             24.156
 VIBRATIONAL             44.664              7.746              2.676
 VIBRATION  1             0.853              1.256              0.665
                       Q            LOG10(Q)             LN(Q)
 TOTAL BOT       0.656842D-20        -20.182539        -46.472014
 TOTAL V=0       0.126834D+13         12.103235         27.868728
 VIB (BOT)       0.701858D-32        -32.153751        -74.036748
 VIB (BOT)  1    0.331196D+00         -0.479915         -1.105044
 VIB (V=0)       0.135526D+01          0.132023          0.303995
 VIB (V=0)  1    0.109974D+01          0.041291          0.095076
 ELECTRONIC      0.100000D+01          0.000000          0.000000
 TRANSLATIONAL   0.220588D+08          7.343582         16.909224
 ROTATIONAL      0.424257D+05          4.627629         10.655510
 ***** Axes restored to original set *****
 -------------------------------------------------------------------
 Center     Atomic                   Forces (Hartrees/Bohr)
 Number     Number              X              Y              Z
 -------------------------------------------------------------------
    1          7           0.000316349    0.000000000    0.000157155
    2          1          -0.000024353    0.000000000   -0.000003114
    3          6           0.000305898    0.000000000   -0.000147794
    4          1          -0.000043108    0.000000000   -0.000000022
    5          6          -0.000372326    0.000000000   -0.000088255
    6          1           0.000023156    0.000000000    0.000052635
    7          1           0.000061587    0.000000000   -0.000013009
    8          6          -0.000310297    0.000000000   -0.000269202
    9          7           0.000043094    0.000000000    0.000311607
 -------------------------------------------------------------------
 Cartesian Forces:  Max     0.000372326 RMS     0.000156826

 GradGradGradGradGradGradGradGradGradGradGradGradGradGradGradGradGradGrad
 Berny optimization.
 Internal  Forces:  Max     0.000266974 RMS     0.000079866
 Search for a local minimum.
 Step number   1 out of a maximum of  48
 All quantities printed in internal units (Hartrees-Bohrs-Radians)
 Second derivative matrix not updated -- analytic derivatives used.
     Eigenvalues ---    0.00477   0.01051   0.01951   0.02680   0.05803
     Eigenvalues ---    0.06047   0.09548   0.10204   0.10831   0.11765
     Eigenvalues ---    0.22553   0.23702   0.33269   0.36510   0.36803
     Eigenvalues ---    0.37168   0.39241   0.43049   0.45353   0.47100
     Eigenvalues ---    0.553341000.000001000.000001000.000001000.00000
     Eigenvalues --- 1000.000001000.000001000.000001000.000001000.00000
     Eigenvalues --- 1000.000001000.000001000.000001000.000001000.00000
     Eigenvalues --- 1000.000001000.000001000.00000
 Angle between quadratic step and forces=  24.73 degrees.
 Linear search not attempted -- first point.
 Iteration  1 RMS(Cart)=  0.00022108 RMS(Int)=  0.00000005
 Iteration  2 RMS(Cart)=  0.00000006 RMS(Int)=  0.00000000
 Variable       Old X    -DE/DX   Delta X   Delta X   Delta X     New X
                                 (Linear)    (Quad)   (Total)
    R1        2.62200   0.00026   0.00000   0.00095   0.00095   2.62295
    R2        2.49914   0.00004   0.00000   0.00011   0.00011   2.49925
    R3        1.91402   0.00000   0.00000   0.00000   0.00000   1.91401
    R4        2.04540   0.00004   0.00000   0.00010   0.00010   2.04551
    R5        2.61171   0.00002   0.00000   0.00002   0.00002   2.61172
    R6        2.63032  -0.00019   0.00000  -0.00053  -0.00053   2.62979
    R7        2.04886   0.00002   0.00000   0.00002   0.00002   2.04888
    R8        2.04991   0.00006   0.00000   0.00019   0.00019   2.05010
    R9        2.60434  -0.00027   0.00000  -0.00077  -0.00077   2.60357
    A1        1.83855  -0.00012   0.00000  -0.00040  -0.00040   1.83815
    A2        2.31817  -0.00005   0.00000  -0.00040  -0.00040   2.31777
    A3        2.13246   0.00000   0.00000   0.00022   0.00022   2.13269
    A4        1.83255   0.00004   0.00000   0.00018   0.00018   1.83273
    A5        1.93398  -0.00009   0.00000  -0.00030  -0.00030   1.93368
    A6        2.11640  -0.00001   0.00000  -0.00047  -0.00047   2.11592
    A7        2.23281   0.00010   0.00000   0.00078   0.00078   2.23358
    A8        2.19758  -0.00004   0.00000  -0.00021  -0.00021   2.19737
    A9        1.95016   0.00009   0.00000   0.00031   0.00031   1.95047
   A10        2.13545  -0.00005   0.00000  -0.00010  -0.00010   2.13535
   A11        2.20335  -0.00006   0.00000  -0.00033  -0.00033   2.20302
   A12        2.21029  -0.00002   0.00000   0.00012   0.00012   2.21041
   A13        1.86954   0.00008   0.00000   0.00021   0.00021   1.86975
    D1        0.00000   0.00000   0.00000   0.00000   0.00000   0.00000
    D2        3.14159   0.00000   0.00000   0.00000   0.00000   3.14159
    D3        3.14159   0.00000   0.00000   0.00000   0.00000   3.14159
    D4        0.00000   0.00000   0.00000   0.00000   0.00000   0.00000
    D5        3.14159   0.00000   0.00000   0.00000   0.00000   3.14159
    D6        0.00000   0.00000   0.00000   0.00000   0.00000   0.00000
    D7        0.00000   0.00000   0.00000   0.00000   0.00000   0.00000
    D8        3.14159   0.00000   0.00000   0.00000   0.00000   3.14159
    D9        0.00000   0.00000   0.00000   0.00000   0.00000   0.00000
   D10        3.14159   0.00000   0.00000   0.00000   0.00000   3.14159
   D11        3.14159   0.00000   0.00000   0.00000   0.00000   3.14159
   D12        0.00000   0.00000   0.00000   0.00000   0.00000   0.00000
   D13        3.14159   0.00000   0.00000   0.00000   0.00000   3.14159
   D14        0.00000   0.00000   0.00000   0.00000   0.00000   0.00000
   D15        0.00000   0.00000   0.00000   0.00000   0.00000   0.00000
   D16        3.14159   0.00000   0.00000   0.00000   0.00000   3.14159
         Item               Value     Threshold  Converged?
 Maximum Force            0.000267     0.000450     YES
 RMS     Force            0.000080     0.000300     YES
 Maximum Displacement     0.000561     0.001800     YES
 RMS     Displacement     0.000221     0.001200     YES
 Predicted change in Energy=-4.166166D-07
 Optimization completed.
    -- Stationary point found.
                         ----------------------------
                         !   Optimized Parameters   !
                         ! (Angstroms and Degrees)  !
 ------------------------                            -------------------------
 ! Name  Definition              Value          Derivative Info.             !
 -----------------------------------------------------------------------------
 ! R1    R(1,5)                  1.3875         -DE/DX =    0.0003           !
 ! R2    R(1,8)                  1.3225         -DE/DX =    0.               !
 ! R3    R(2,9)                  1.0129         -DE/DX =    0.               !
 ! R4    R(3,4)                  1.0824         -DE/DX =    0.               !
 ! R5    R(3,5)                  1.3821         -DE/DX =    0.               !
 ! R6    R(3,9)                  1.3919         -DE/DX =   -0.0002           !
 ! R7    R(5,6)                  1.0842         -DE/DX =    0.               !
 ! R8    R(7,8)                  1.0848         -DE/DX =    0.0001           !
 ! R9    R(8,9)                  1.3782         -DE/DX =   -0.0003           !
 ! A1    A(5,1,8)              105.3409         -DE/DX =   -0.0001           !
 ! A2    A(4,3,5)              132.8214         -DE/DX =    0.               !
 ! A3    A(4,3,9)              122.1812         -DE/DX =    0.               !
 ! A4    A(5,3,9)              104.9974         -DE/DX =    0.               !
 ! A5    A(1,5,3)              110.809          -DE/DX =   -0.0001           !
 ! A6    A(1,5,6)              121.2605         -DE/DX =    0.               !
 ! A7    A(3,5,6)              127.9304         -DE/DX =    0.0001           !
 ! A8    A(1,8,7)              125.9122         -DE/DX =    0.               !
 ! A9    A(1,8,9)              111.7358         -DE/DX =    0.0001           !
 ! A10   A(7,8,9)              122.352          -DE/DX =    0.               !
 ! A11   A(2,9,3)              126.2426         -DE/DX =   -0.0001           !
 ! A12   A(2,9,8)              126.6405         -DE/DX =    0.               !
 ! A13   A(3,9,8)              107.1169         -DE/DX =    0.0001           !
 ! D1    D(8,1,5,3)              0.             -DE/DX =    0.               !
 ! D2    D(8,1,5,6)            180.             -DE/DX =    0.               !
 ! D3    D(5,1,8,7)            180.             -DE/DX =    0.               !
 ! D4    D(5,1,8,9)              0.             -DE/DX =    0.               !
 ! D5    D(4,3,5,1)            180.             -DE/DX =    0.               !
 ! D6    D(4,3,5,6)              0.             -DE/DX =    0.               !
 ! D7    D(9,3,5,1)              0.             -DE/DX =    0.               !
 ! D8    D(9,3,5,6)            180.             -DE/DX =    0.               !
 ! D9    D(4,3,9,2)              0.             -DE/DX =    0.               !
 ! D10   D(4,3,9,8)            180.             -DE/DX =    0.               !
 ! D11   D(5,3,9,2)            180.             -DE/DX =    0.               !
 ! D12   D(5,3,9,8)              0.             -DE/DX =    0.               !
 ! D13   D(1,8,9,2)            180.             -DE/DX =    0.               !
 ! D14   D(1,8,9,3)              0.             -DE/DX =    0.               !
 ! D15   D(7,8,9,2)              0.             -DE/DX =    0.               !
 ! D16   D(7,8,9,3)            180.             -DE/DX =    0.               !
 -----------------------------------------------------------------------------
 GradGradGradGradGradGradGradGradGradGradGradGradGradGradGradGradGradGrad

 1\1\GINC-INDIUM\Freq\RB3LYP\CEP-121G(d)\C3H4N2\RDJ3\18-Oct-2000\0\\#N
 GEOM=ALLCHECK GUESS=TCHECK RB3LYP/CEP-121G(D) FREQ\\1H imidazole C3H4N
 2 casno=288324\\0,1\N,0.502703908,0.,1.1591572995\H,0.4943346933,0.,-2
 .0469198917\C,-1.030231366,0.,-0.5283924256\H,-1.9142211481,0.,-1.1529
 785178\C,-0.84796791,0.,0.8415920523\H,-1.6077841699,0.,1.6150189242\H
 ,2.2110726584,0.,-0.1408702891\C,1.1351973898,0.,-0.0022766549\N,0.255
 0171942,0.,-1.062745722\\Version=IBM-RS6000-G98RevA.6\State=1-A'\HF=-3
 9.1570997\RMSD=1.050e-09\RMSF=1.568e-04\Dipole=-0.10307,0.,-1.4949427\
 DipoleDeriv=-0.3781176,-0.0000966,-0.0394622,0.0007213,-0.2830875,0.00
 08345,-0.0116514,0.0001733,-0.5906371,0.1778733,0.0000239,-0.0017879,0
 .0000453,0.3354732,-0.0001769,0.0025784,-0.0000429,0.1540609,0.0164902
 ,0.0001526,-0.2574656,0.0002798,-0.1549407,0.0000311,-0.0496545,0.0001
 256,0.1877402,-0.0015741,-0.0001593,-0.0556041,-0.0004795,0.2002884,-0
 .0003829,-0.0827859,-0.0001538,0.0283815,0.214375,-0.0001356,-0.018675
 1,-0.0003435,-0.1575838,-0.0004042,-0.0872127,0.0001124,0.1512416,-0.0
 183641,0.0000262,0.0719904,0.0001926,0.1654434,0.000242,0.0999707,-0.0
 000089,0.0198199,-0.0528223,-0.0000409,0.0349505,0.000336,0.1683343,0.
 0001623,0.0334707,-0.0000107,0.0625562,0.1340434,0.0002075,0.0888672,-
 0.0004112,-0.0278106,-0.0006002,0.0255151,-0.0001735,0.5754126,-0.0919
 031,0.0000221,0.1771874,-0.000341,-0.2461166,0.0002945,0.0697701,-0.00
 00216,-0.588575\Polar=52.8979048,0.0061674,25.400209,-0.2469895,0.0000
 727,49.7423686\PG=CS [SG(C3H4N2)]\NImag=0\\0.47245185,-0.00000734,0.10
 031701,-0.05656902,-0.00003457,0.54979633,-0.00318537,0.00000315,-0.00
 811813,0.07879406,0.00000143,0.00696431,0.00000006,0.00000005,0.010660
 65,-0.00285572,-0.00000928,-0.00368466,-0.09536343,0.00000021,0.445150
 71,-0.03147018,0.00000152,-0.01267754,0.00780299,0.00000041,-0.0023824
 2,0.71582329,0.00000319,0.01654192,-0.00001157,0.00000021,-0.00764771,
 0.00000156,-0.00000319,0.10356446,-0.08489818,0.00000531,-0.01906329,0
 .02697334,-0.00000959,-0.00022728,0.16193892,-0.00000531,0.70758441,0.
 00157176,-0.00001183,0.00111238,0.00011743,-0.00000134,0.00020032,-0.2
 5189360,0.00000249,-0.13751868,0.26599385,0.00000132,0.00687494,0.0000
 1995,-0.00000164,-0.00110583,0.00000184,0.00000137,-0.01962947,-0.0000
 0024,0.00000212,0.01773189,-0.00386242,-0.00001061,-0.00532385,-0.0009
 9303,-0.00000022,0.00006907,-0.14855027,0.00000325,-0.16281626,0.15107
 473,0.00000070,0.15519264,-0.24442832,0.00002613,-0.03489667,-0.008782
 53,-0.00000234,-0.00142046,-0.09827678,0.00000649,-0.01796567,0.005013
 72,-0.00001150,-0.02093073,0.63974489,0.00000092,-0.06721477,0.0000153
 6,-0.00000163,0.00202506,0.00000375,0.00000290,-0.06212764,0.00000109,
 0.00000365,-0.00188971,0.00000247,-0.00001559,0.12732096,-0.04400842,0
 .00001906,-0.10932863,0.00327726,0.00000578,0.00038794,-0.03362424,0.0
 0000021,-0.36709439,0.00137368,-0.00000582,0.00300578,-0.15777614,-0.0
 0000647,0.76288271,-0.01920321,-0.00000273,0.02078366,0.00085328,0.000
 00158,-0.00003716,0.00871071,-0.00000192,-0.00547215,-0.00027757,0.000
 00051,0.00061968,-0.19082672,0.00000230,0.14459234,0.20657603,-0.00000
 217,-0.00533814,-0.00000957,0.00000077,0.00210142,-0.00000094,-0.00000
 005,-0.00065770,0.00000113,-0.00000156,-0.00196336,-0.00000110,0.00000
 932,-0.02755434,0.00000277,-0.00000050,0.02231997,-0.00665723,0.000000
 12,0.01226694,0.00123074,0.00000016,0.00025672,0.01955727,0.00000046,-
 0.00712331,-0.00045089,0.00000136,-0.00027898,0.14812205,-0.00000082,-
 0.21467911,-0.15677061,-0.00000053,0.21384694,-0.00827427,-0.00001987,
 0.00376334,-0.00064745,0.00000708,-0.00045590,0.00103362,-0.00000315,-
 0.00317648,-0.00031253,0.00001061,0.00042829,0.00086896,0.00000417,0.0
 0255029,-0.00028798,-0.00000332,-0.00021754,0.36262456,-0.00000251,-0.
 00539066,-0.00001800,0.00000083,-0.00118842,0.00000321,0.00000204,0.00
 234654,0.00000256,-0.00000584,0.00194313,-0.00000351,0.00001350,0.0070
 0376,0.00000443,-0.00000279,0.00107753,0.00000114,-0.00001431,0.020091
 51,0.02901843,0.00000304,0.00082081,0.00057386,-0.00000099,0.00024368,
 -0.00077632,0.00000045,-0.00595722,-0.00105154,-0.00000173,0.00107691,
 0.00279523,-0.00000044,-0.00447470,0.00140614,0.00000018,0.00071042,-0
 .03809353,0.00000112,0.06136509,-0.16351206,0.00001206,0.11222501,0.01
 853042,-0.00000718,0.01307491,-0.08975555,-0.00000380,0.00486786,-0.00
 300457,-0.00000454,0.00390054,-0.08668179,0.00000233,0.01563426,-0.006
 04326,-0.00000129,-0.00340102,-0.34281073,0.00000383,0.03573090,0.8714
 5403,0.00000706,-0.07277804,0.00002816,-0.00000171,-0.00906781,0.00000
 481,0.00000224,0.01556270,-0.00000546,0.00000708,0.00258109,0.00000630
 ,-0.00002357,0.00896725,-0.00001009,0.00000247,0.00546820,-0.00000050,
 0.00001581,-0.02358000,-0.00000234,-0.00000696,0.12728263,0.13460757,0
 .00002426,-0.32320212,-0.01548043,0.00000161,-0.00959812,-0.04582301,0
 .00000843,-0.00959140,0.00398505,-0.00001292,-0.00555398,0.07418034,-0
 .00001556,-0.00100882,-0.00207912,0.00000822,0.00029203,0.03114421,0.0
 0000675,-0.06112851,-0.08855935,-0.00001974,0.61034246,-0.00395020,-0.
 00000109,-0.02562304,-0.09348284,0.00000030,0.08923987,-0.26197450,-0.
 00000034,0.05525104,-0.01720848,0.00000175,0.01831322,-0.01663144,0.00
 000096,0.06798099,0.00049873,-0.00000120,-0.00141277,-0.01219418,0.000
 00524,-0.02960318,-0.19817647,-0.00000243,-0.09197527,0.60311938,-0.00
 000186,0.02002345,0.00001017,-0.00000002,-0.00274165,-0.00000516,-0.00
 000723,-0.04795309,0.00001049,0.00000522,-0.00454266,0.00000272,-0.000
 00247,0.01346944,-0.00000988,0.00000107,0.00454644,-0.00000139,0.00000
 297,-0.00230337,0.00000071,0.00000553,-0.05443601,-0.00000105,-0.00000
 321,0.07393745,0.03522501,0.00000266,-0.10228153,0.08789982,0.00000297
 ,-0.43259805,0.06233761,0.00000252,-0.13571128,-0.01872505,-0.00000314
 ,0.01462869,0.00789206,0.00000062,-0.06969078,-0.00304280,-0.00000017,
 -0.00529165,0.00405732,0.00000230,0.00734352,-0.09347312,-0.00000114,-
 0.20055151,-0.08217087,-0.00000662,0.92415259\\-0.00031635,0.,-0.00015
 716,0.00002435,0.,0.00000311,-0.00030590,0.,0.00014779,0.00004311,0.,0
 .00000002,0.00037233,0.,0.00008825,-0.00002316,0.,-0.00005263,-0.00006
 159,0.,0.00001301,0.00031030,0.,0.00026920,-0.00004309,0.,-0.00031161\
 \\@

 A FOOL CAN ASK MORE QUESTIONS THAN
 A WISE MAN CAN ANSWER.
 Job cpu time:  0 days  0 hours 11 minutes 26.2 seconds.
 File lengths (MBytes):  RWF=   21 Int=    0 D2E=    0 Chk=    8 Scr=    1
 Normal termination of Gaussian 98.
