 Gaussian 98, Revision A.4,
 Gaussian 98:  x86-Linux-G98RevA.4 11-Sep-1998

 ------------------------
 #B3LYP/CEP-121G opt freq
 ------------------------

 --------------------------------
 1H imidazole C3H4N2 casno=288324
 --------------------------------
 Symbolic Z-matrix:
 Charge =  0 Multiplicity = 1

 SCF Done:  E(RB+HF-LYP) =  -38.9972630434     A.U. after   16 cycles
 SCF Done:  E(RB+HF-LYP) =  -39.0663763701     A.U. after   14 cycles
 SCF Done:  E(RB+HF-LYP) =  -39.0836456017     A.U. after   14 cycles
 SCF Done:  E(RB+HF-LYP) =  -39.0841174705     A.U. after   12 cycles
 SCF Done:  E(RB+HF-LYP) =  -39.0842781511     A.U. after   10 cycles
 SCF Done:  E(RB+HF-LYP) =  -39.0842967433     A.U. after    9 cycles
 Optimization completed.
    -- Stationary point found.
 Normal termination of Gaussian 98.

 --------------------------------------------------
 #N Geom=AllCheck Guess=TCheck RB3LYP/CEP-121G Freq
 --------------------------------------------------

 1H imidazole C3H4N2 casno=288324
 --------------------------------
 Redundant internal coordinates taken from checkpointfile:
 /wrk/rdj3/Gau-2982.chk
 Charge =  0 Multiplicity = 1

                         Standard orientation:
 ---------------------------------------------------------------------
 Center     Atomic     Atomic              Coordinates (Angstroms)
 Number     Number      Type              X           Y           Z
 ---------------------------------------------------------------------
    1          7             0       -0.766599   -1.019731    0.000000
    2          1             0        0.002009    2.114392    0.000000
    3          6             0        1.135590    0.275558    0.000000
    4          1             0        2.139574    0.672208    0.000000
    5          6             0        0.642945   -1.026563    0.000000
    6          1             0        1.193577   -1.955476    0.000000
    7          1             0       -2.133400    0.651697    0.000000
    8          6             0       -1.120727    0.275291    0.000000
    9          7             0        0.000000    1.103738    0.000000
 ---------------------------------------------------------------------

 SCF Done:  E(RB+HF-LYP) =  -39.0842967433     A.U. after    1 cycles

  The electronic state is 1-A'.
 Alpha  occ. eigenvalues --   -1.02678  -0.88585  -0.75994  -0.62858  -0.60056
 Alpha  occ. eigenvalues --   -0.57272  -0.45137  -0.45052  -0.43219  -0.42007
 Alpha  occ. eigenvalues --   -0.28715  -0.26575  -0.24151
 Alpha virt. eigenvalues --    0.00831   0.02096   0.04952   0.07172   0.07740
 Alpha virt. eigenvalues --    0.09601   0.15251   0.17772   0.19189   0.22429
 Alpha virt. eigenvalues --    0.28974   0.29123   0.31210   0.33087   0.33788

  Exact polarizability:  51.852  -1.020  49.645   0.002  -0.006  24.242
 Approx polarizability:  78.336   1.906  82.401   0.000   0.000  31.609

                     1                      2                      3
                    A"                     A"                     A"
 Frequencies --   607.0507               643.9141               668.7789
 Red. masses --     2.7738                 1.4609                 2.6154
 Frc consts  --     0.6022                 0.3569                 0.6892
 IR Inten    --    68.0048                82.0883                 0.3613
 Raman Activ --     0.0000                 0.0000                 0.0000

                     4                      5                      6
                    A"                     A"                     A"
 Frequencies --   751.0195               804.7594               875.4748
 Red. masses --     1.2355                 1.3272                 1.3393
 Frc consts  --     0.4106                 0.5064                 0.6048
 IR Inten    --    41.4672                51.3540                 6.0332
 Raman Activ --     0.0000                 0.0000                 0.0000

                     7                      8                      9
                    A'                     A'                     A'
 Frequencies --   895.6693               933.9067              1051.5178
 Red. masses --     5.7406                 4.6700                 1.8109
 Frc consts  --     2.7133                 2.3998                 1.1797
 IR Inten    --     8.4334                 3.8191                45.3967
 Raman Activ --     0.0000                 0.0000                 0.0000

                    10                     11                     12
                    A'                     A'                     A'
 Frequencies --  1087.1400              1114.2707              1148.5259
 Red. masses --     1.6677                 6.3404                 1.3924
 Frc consts  --     1.1613                 4.6382                 1.0822
 IR Inten    --    20.2687                 8.3448                 0.7402
 Raman Activ --     0.0000                 0.0000                 0.0000

                    13                     14                     15
                    A'                     A'                     A'
 Frequencies --  1263.9912              1331.4363              1391.9684
 Red. masses --     1.4899                 2.9692                 2.5381
 Frc consts  --     1.4025                 3.1012                 2.8975
 IR Inten    --     1.1140                 7.9616                12.6355
 Raman Activ --     0.0000                 0.0000                 0.0000

                    16                     17                     18
                    A'                     A'                     A'
 Frequencies --  1461.2144              1524.2045              3246.4118
 Red. masses --     2.7266                 2.6386                 1.0920
 Frc consts  --     3.4300                 3.6117                 6.7810
 IR Inten    --    12.8990                14.9000                 4.4593
 Raman Activ --     0.0000                 0.0000                 0.0000

                    19                     20                     21
                    A'                     A'                     A'
 Frequencies --  3254.1647              3273.9971              3645.1944
 Red. masses --     1.0987                 1.1106                 1.0832
 Frc consts  --     6.8548                 7.0143                 8.4799
 IR Inten    --     3.8787                 5.8536                32.2636
 Raman Activ --     0.0000                 0.0000                 0.0000

 - Thermochemistry -
 -------------------
 Temperature   298.150 Kelvin.  Pressure   1.00000 Atm.
 Atom  1 has atomic number  7 and mass  14.00307

 Molecular mass:    68.03745 amu.
 Principal axes and moments of inertia in atomic units:
                           1         2         3
     EIGENVALUES --   192.61292 198.51973 391.13265
           X            0.49001   0.87172   0.00000
           Y            0.87172  -0.49001   0.00000
           Z            0.00000   0.00000   1.00000
 THIS MOLECULE IS AN ASYMMETRIC TOP.
 ROTATIONAL SYMMETRY NUMBER  1.
 ROTATIONAL TEMPERATURES (KELVIN)      0.44968     0.43630     0.22144
 ROTATIONAL CONSTANTS (GHZ)            9.36978     9.09099     4.61414
 Zero-point vibrational energy     185269.3 (Joules/Mol)
                                   44.28043 (Kcal/Mol)
 WARNING-- EXPLICIT CONSIDERATION OF   1 DEGREES OF FREEDOM AS
           VIBRATIONS MAY CAUSE SIGNIFICANT ERROR
 VIBRATIONAL TEMPERATURES:    873.41   926.44   962.22  1080.54  1157.86
          (KELVIN)           1259.61  1288.66  1343.68  1512.89  1564.14
                             1603.18  1652.46  1818.59  1915.63  2002.72
                             2102.35  2192.98  4670.84  4681.99  4710.52
                             5244.59

 Zero-point correction=                           0.070565 (Hartree/Particle)
 Thermal correction to Energy=                    0.074291
 Thermal correction to Enthalpy=                  0.075235
 Thermal correction to Gibbs Free Energy=         0.044269
 Sum of electronic and zero-point Energies=            -39.013731
 Sum of electronic and thermal Energies=               -39.010006
 Sum of electronic and thermal Enthalpies=             -39.009062
 Sum of electronic and thermal Free Energies=          -39.040028

                     E (Thermal)             CV                S
                      KCAL/MOL        CAL/MOL-KELVIN    CAL/MOL-KELVIN
 TOTAL                   46.618             13.370             65.174
 ELECTRONIC               0.000              0.000              0.000
 TRANSLATIONAL            0.889              2.981             38.570
 ROTATIONAL               0.889              2.981             24.218
 VIBRATIONAL             44.841              7.409              2.386
 VIBRATION  1             0.966              1.017              0.438
                       Q            LOG10(Q)             LN(Q)
 TOTAL BOT       0.434436D-20        -20.362075        -46.885410
 TOTAL V=0       0.124600D+13         12.095519         27.850963
 VIB (BOT)       0.449870D-32        -32.346913        -74.481520
 VIB (BOT)  1    0.244192D+00         -0.612268         -1.409800
 VIB (V=0)       0.129027D+01          0.110681          0.254853
 VIB (V=0)  1    0.105644D+01          0.023846          0.054908
 ELECTRONIC      0.100000D+01          0.000000          0.000000
 TRANSLATIONAL   0.220588D+08          7.343582         16.909224
 ROTATIONAL      0.437780D+05          4.641256         10.686887
 ***** Axes restored to original set *****
 -------------------------------------------------------------------
 Center     Atomic                   Forces (Hartrees/Bohr)
 Number     Number              X              Y              Z
 -------------------------------------------------------------------
    1          7           0.000485126    0.000000000   -0.000011516
    2          1          -0.000010360    0.000000000   -0.000100983
    3          6           0.000381202    0.000000000   -0.000114172
    4          1          -0.000122916    0.000000000   -0.000089400
    5          6          -0.000371948    0.000000000   -0.000178336
    6          1          -0.000044629    0.000000000    0.000171213
    7          1           0.000193769    0.000000000   -0.000031405
    8          6          -0.000630225    0.000000000   -0.000182022
    9          7           0.000119980    0.000000000    0.000536621
 -------------------------------------------------------------------
 Cartesian Forces:  Max     0.000630225 RMS     0.000227702

 GradGradGradGradGradGradGradGradGradGradGradGradGradGradGradGradGradGrad
 Berny optimization.
 Internal  Forces:  Max     0.000391872 RMS     0.000116617
 Search for a local minimum.
 Step number   1 out of a maximum of  48
 All quantities printed in internal units (Hartrees-Bohrs-Radians)
 Second derivative matrix not updated -- analytic derivatives used.
     Eigenvalues ---    0.00714   0.01175   0.02024   0.02748   0.05926
     Eigenvalues ---    0.06188   0.09709   0.10459   0.10887   0.11554
     Eigenvalues ---    0.22952   0.23876   0.31667   0.36822   0.37174
     Eigenvalues ---    0.37250   0.38195   0.42106   0.46167   0.47485
     Eigenvalues ---    0.530541000.000001000.000001000.000001000.00000
     Eigenvalues --- 1000.000001000.000001000.000001000.000001000.00000
     Eigenvalues --- 1000.000001000.000001000.000001000.000001000.00000
     Eigenvalues --- 1000.000001000.000001000.00000
 Angle between quadratic step and forces=  25.88 degrees.
 Linear search not attempted -- first point.
 Iteration  1 RMS(Cart)=  0.00039035 RMS(Int)=  0.00000014
 Iteration  2 RMS(Cart)=  0.00000014 RMS(Int)=  0.00000001
 Variable       Old X    -DE/DX   Delta X   Delta X   Delta X     New X
                                 (Linear)    (Quad)   (Total)
    R1        2.66368   0.00032   0.00000   0.00131   0.00131   2.66500
    R2        2.53709  -0.00015   0.00000  -0.00028  -0.00028   2.53681
    R3        1.90986   0.00010   0.00000   0.00020   0.00020   1.91006
    R4        2.03995   0.00015   0.00000   0.00041   0.00041   2.04036
    R5        2.63088   0.00004   0.00000   0.00008   0.00008   2.63095
    R6        2.65602  -0.00020   0.00000  -0.00049  -0.00049   2.65554
    R7        2.04062   0.00015   0.00000   0.00038   0.00038   2.04100
    R8        2.04159   0.00020   0.00000   0.00055   0.00055   2.04215
    R9        2.63368  -0.00039   0.00000  -0.00117  -0.00117   2.63251
    A1        1.84257  -0.00010   0.00000  -0.00040  -0.00040   1.84217
    A2        2.30875   0.00001   0.00000  -0.00006  -0.00006   2.30869
    A3        2.13522   0.00000   0.00000  -0.00004  -0.00004   2.13518
    A4        1.83922   0.00000   0.00000   0.00010   0.00010   1.83932
    A5        1.92765  -0.00014   0.00000  -0.00047  -0.00047   1.92718
    A6        2.11073  -0.00002   0.00000  -0.00077  -0.00077   2.10996
    A7        2.24481   0.00016   0.00000   0.00124   0.00124   2.24605
    A8        2.19360  -0.00006   0.00000  -0.00029  -0.00029   2.19331
    A9        1.94043   0.00013   0.00000   0.00046   0.00046   1.94088
   A10        2.14916  -0.00007   0.00000  -0.00017  -0.00017   2.14899
   A11        2.19893  -0.00009   0.00000  -0.00050  -0.00050   2.19843
   A12        2.20934  -0.00003   0.00000   0.00019   0.00019   2.20953
   A13        1.87492   0.00012   0.00000   0.00031   0.00031   1.87522
    D1        0.00000   0.00000   0.00000   0.00000   0.00000   0.00000
    D2        3.14159   0.00000   0.00000   0.00000   0.00000   3.14159
    D3        3.14159   0.00000   0.00000   0.00000   0.00000   3.14159
    D4        0.00000   0.00000   0.00000   0.00000   0.00000   0.00000
    D5        3.14159   0.00000   0.00000   0.00000   0.00000   3.14159
    D6        0.00000   0.00000   0.00000   0.00000   0.00000   0.00000
    D7        0.00000   0.00000   0.00000   0.00000   0.00000   0.00000
    D8        3.14159   0.00000   0.00000   0.00000   0.00000   3.14159
    D9        0.00000   0.00000   0.00000   0.00000   0.00000   0.00000
   D10        3.14159   0.00000   0.00000   0.00000   0.00000   3.14159
   D11        3.14159   0.00000   0.00000   0.00000   0.00000   3.14159
   D12        0.00000   0.00000   0.00000   0.00000   0.00000   0.00000
   D13        3.14159   0.00000   0.00000   0.00000   0.00000   3.14159
   D14        0.00000   0.00000   0.00000   0.00000   0.00000   0.00000
   D15        0.00000   0.00000   0.00000   0.00000   0.00000   0.00000
   D16        3.14159   0.00000   0.00000   0.00000   0.00000   3.14159
         Item               Value     Threshold  Converged?
 Maximum Force            0.000392     0.000450     YES
 RMS     Force            0.000117     0.000300     YES
 Maximum Displacement     0.001308     0.001800     YES
 RMS     Displacement     0.000390     0.001200     YES
 Predicted change in Energy=-8.739318D-07
 Optimization completed.
    -- Stationary point found.
                         ----------------------------
                         !   Optimized Parameters   !
                         ! (Angstroms and Degrees)  !
 ------------------------                            -------------------------
 ! Name  Definition              Value          Derivative Info.             !
 -----------------------------------------------------------------------------
 ! R1    R(1,5)                  1.4096         -DE/DX =    0.0003           !
 ! R2    R(1,8)                  1.3426         -DE/DX =   -0.0001           !
 ! R3    R(2,9)                  1.0107         -DE/DX =    0.0001           !
 ! R4    R(3,4)                  1.0795         -DE/DX =    0.0002           !
 ! R5    R(3,5)                  1.3922         -DE/DX =    0.               !
 ! R6    R(3,9)                  1.4055         -DE/DX =   -0.0002           !
 ! R7    R(5,6)                  1.0798         -DE/DX =    0.0002           !
 ! R8    R(7,8)                  1.0804         -DE/DX =    0.0002           !
 ! R9    R(8,9)                  1.3937         -DE/DX =   -0.0004           !
 ! A1    A(5,1,8)              105.5715         -DE/DX =   -0.0001           !
 ! A2    A(4,3,5)              132.2814         -DE/DX =    0.               !
 ! A3    A(4,3,9)              122.3392         -DE/DX =    0.               !
 ! A4    A(5,3,9)              105.3794         -DE/DX =    0.               !
 ! A5    A(1,5,3)              110.446          -DE/DX =   -0.0001           !
 ! A6    A(1,5,6)              120.9358         -DE/DX =    0.               !
 ! A7    A(3,5,6)              128.6182         -DE/DX =    0.0002           !
 ! A8    A(1,8,7)              125.6838         -DE/DX =   -0.0001           !
 ! A9    A(1,8,9)              111.1782         -DE/DX =    0.0001           !
 ! A10   A(7,8,9)              123.1381         -DE/DX =   -0.0001           !
 ! A11   A(2,9,3)              125.9892         -DE/DX =   -0.0001           !
 ! A12   A(2,9,8)              126.5859         -DE/DX =    0.               !
 ! A13   A(3,9,8)              107.4249         -DE/DX =    0.0001           !
 ! D1    D(8,1,5,3)              0.             -DE/DX =    0.               !
 ! D2    D(8,1,5,6)            180.             -DE/DX =    0.               !
 ! D3    D(5,1,8,7)            180.             -DE/DX =    0.               !
 ! D4    D(5,1,8,9)              0.             -DE/DX =    0.               !
 ! D5    D(4,3,5,1)            180.             -DE/DX =    0.               !
 ! D6    D(4,3,5,6)              0.             -DE/DX =    0.               !
 ! D7    D(9,3,5,1)              0.             -DE/DX =    0.               !
 ! D8    D(9,3,5,6)            180.             -DE/DX =    0.               !
 ! D9    D(4,3,9,2)              0.             -DE/DX =    0.               !
 ! D10   D(4,3,9,8)            180.             -DE/DX =    0.               !
 ! D11   D(5,3,9,2)            180.             -DE/DX =    0.               !
 ! D12   D(5,3,9,8)              0.             -DE/DX =    0.               !
 ! D13   D(1,8,9,2)            180.             -DE/DX =    0.               !
 ! D14   D(1,8,9,3)              0.             -DE/DX =    0.               !
 ! D15   D(7,8,9,2)              0.             -DE/DX =    0.               !
 ! D16   D(7,8,9,3)            180.             -DE/DX =    0.               !
 -----------------------------------------------------------------------------
 GradGradGradGradGradGradGradGradGradGradGradGradGradGradGradGradGradGrad

 1\1\GINC-QCHEM6\Freq\RB3LYP\CEP-121G\C3H4N2\RDJ3\06-Oct-2000\0\\#N GEO
 M=ALLCHECK GUESS=TCHECK RB3LYP/CEP-121G FREQ\\1H imidazole C3H4N2 casn
 o=288324\\0,1\N,0.5074318665,0.,1.1704867392\H,0.4915256815,0.,-2.0564
 676147\C,-1.0399160682,0.,-0.5329846922\H,-1.9235983792,0.,-1.15300072
 87\C,-0.8647795168,0.,0.8481547413\H,-1.6170040198,0.,1.6229021857\H,2
 .2265819758,0.,-0.1357836283\C,1.1540264554,0.,-0.00612048\N,0.2576023
 855,0.,-1.0732564374\\Version=x86-Linux-G98RevA.4\State=1-A'\HF=-39.08
 42967\RMSD=5.726e-09\RMSF=2.277e-04\Dipole=-0.1686005,0.,-1.615117\Dip
 oleDeriv=-0.3426845,0.0002903,0.0200174,-0.0001934,-0.2947413,0.000305
 7,0.0191944,0.0006252,-0.5174668,0.1926389,0.0001108,-0.0045524,0.0000
 932,0.3751535,-0.0000404,0.0090012,-0.0002239,0.1380123,-0.0044912,0.0
 000486,-0.267626,0.0000819,-0.1366909,0.0000879,-0.0671263,-0.000165,0
 .2052865,0.0092307,-0.0005508,-0.0579651,-0.0002497,0.2142,0.0001587,-
 0.0884576,-0.0003872,0.0367803,0.1836236,-0.0001186,-0.0650919,0.00015
 53,-0.1792497,-0.0000319,-0.1237117,0.00026,0.0927093,-0.0047954,-0.00
 02871,0.076246,0.0001618,0.180705,-0.0001737,0.1028532,0.0003296,0.034
 9857,-0.0354239,-0.0001663,0.0326886,0.0001217,0.1864768,0.0000087,0.0
 354136,0.000001,0.0777375,0.1056266,0.0003238,0.0895902,0.0000061,-0.0
 482519,-0.0001692,0.0135662,-0.0005463,0.542645,-0.1037243,0.0003494,0
 .1766931,-0.0001772,-0.2976012,-0.0001456,0.0992674,0.0001067,-0.61068
 89\Polar=52.1946825,0.003768,24.2420803,-0.407583,-0.0050872,49.302650
 1\PG=CS [SG(C3H4N2)]\NImag=0\\0.45170235,-0.00000237,0.09916842,-0.058
 00467,0.00002847,0.51061307,-0.00339814,0.00000403,-0.00732028,0.08158
 151,0.00000352,0.00644735,-0.00000040,0.00000004,0.01425047,-0.0026399
 6,-0.00000941,-0.00230852,-0.09345854,-0.00000009,0.44906298,-0.033291
 40,-0.00000090,-0.01750113,0.00581099,0.00000092,-0.00759980,0.7165717
 5,0.00000023,0.01681321,-0.00000638,-0.00000027,-0.00539707,0.00000003
 ,-0.00000116,0.11214325,-0.08017391,-0.00000072,-0.02328518,0.02982703
 ,-0.00000127,0.00075404,0.16982991,-0.00000015,0.71365449,0.00162294,-
 0.00001801,0.00140159,0.00009709,-0.00000132,0.00050900,-0.25691405,-0
 .00000041,-0.14124735,0.26782948,-0.00000241,0.00673461,0.00000562,0.0
 0000055,-0.00108383,-0.00000233,-0.00000180,-0.02304884,-0.00000154,-0
 .00000314,0.01924253,-0.00312126,-0.00001178,-0.00438021,-0.00101095,-
 0.00000100,0.00025072,-0.15233599,-0.00000060,-0.16274953,0.15079200,-
 0.00000317,0.15496898,-0.22762465,-0.00000546,-0.01803349,-0.00859845,
 -0.00000006,-0.00183718,-0.09890903,0.00000546,-0.02049643,0.00550398,
 0.00000334,-0.02122898,0.62776054,0.00000076,-0.06708243,-0.00001229,-
 0.00000111,0.00292650,0.00000291,-0.00000067,-0.06491823,0.00000141,0.
 00000511,-0.00072578,0.00000326,0.00000299,0.13111426,-0.04118163,0.00
 001020,-0.09906862,0.00256477,0.00000026,0.00089899,-0.03208541,0.0000
 0113,-0.36975217,0.00596362,0.00000252,0.00362502,-0.17236363,-0.00000
 184,0.76505035,-0.01644314,-0.00000039,0.02079720,0.00076130,-0.000001
 77,0.00013163,0.00830869,-0.00000116,-0.00958876,-0.00015631,-0.000002
 93,0.00076896,-0.19442907,0.00000164,0.15073404,0.20706328,0.00000707,
 -0.00517018,-0.00000110,0.00000027,0.00167342,0.00000101,0.00000250,0.
 00005997,-0.00000114,-0.00000038,-0.00209254,-0.00000017,-0.00000465,-
 0.02954876,-0.00000058,-0.00000259,0.02329497,-0.01048224,0.00000285,0
 .01092089,0.00120196,0.00000142,0.00006401,0.02053208,0.00000030,-0.00
 500300,-0.00064453,0.00000299,-0.00044940,0.15452973,-0.00000260,-0.21
 991705,-0.15888112,0.00000240,0.21793431,-0.00577187,0.00000967,-0.000
 98362,-0.00056018,-0.00000152,-0.00076986,0.00179453,-0.00000379,-0.00
 244424,-0.00030283,0.00000019,0.00028285,0.00154328,-0.00000351,0.0017
 3684,-0.00037875,-0.00000524,-0.00009158,0.36695591,0.00000701,-0.0052
 0313,0.00000746,0.00000173,-0.00100035,-0.00000248,0.00000269,0.002746
 57,-0.00000308,-0.00000940,0.00159482,-0.00000541,-0.00000315,0.007152
 95,0.00000401,-0.00000364,0.00096613,0.00000457,-0.00000378,0.02047188
 ,0.02804967,-0.00000150,0.00040420,0.00063399,0.00000045,0.00018779,-0
 .00104458,0.00000029,-0.00581172,-0.00091926,-0.00000074,0.00105471,0.
 00276180,0.00000056,-0.00409255,0.00134228,0.00000063,0.00066935,-0.03
 667786,0.00000062,0.06024628,-0.16040107,0.00000413,0.10352445,0.01588
 640,0.00000076,0.01596716,-0.08863025,0.00000086,-0.00017572,-0.002106
 04,0.00000103,0.00452523,-0.08738005,-0.00000131,0.02024352,-0.0052347
 2,0.00000134,-0.00435031,-0.35388794,0.00000638,0.03606252,0.87344142,
 -0.00000251,-0.07228494,-0.00001928,-0.00000338,-0.00654392,0.00000674
 ,-0.00000031,0.01549134,-0.00000001,0.00001483,0.00314468,0.00000940,0
 .00000637,0.00915828,-0.00000749,0.00000048,0.00564853,-0.00000253,-0.
 00000411,-0.02454516,0.00000038,-0.00000613,0.12936375,0.13864861,-0.0
 0001707,-0.29069205,-0.02078349,0.00000110,-0.00802961,-0.03878626,0.0
 0000641,-0.01155761,0.00379890,-0.00000426,-0.00545600,0.06293940,0.00
 000979,-0.00736435,-0.00175597,-0.00000504,0.00050697,0.03208393,-0.00
 000597,-0.05867966,-0.09101463,0.00001171,0.57517747,-0.00639503,0.000
 00931,-0.02388006,-0.09158051,-0.00000058,0.08969756,-0.25474124,0.000
 00024,0.05446948,-0.01557426,0.00000515,0.02132814,-0.01786656,-0.0000
 0390,0.06438789,0.00050873,0.00000167,-0.00181398,-0.00939214,0.000002
 16,-0.03020857,-0.19168773,-0.00000525,-0.08513050,0.58672875,-0.00001
 130,0.02057709,-0.00000210,-0.00000187,-0.01127256,0.00000361,-0.00000
 127,-0.05389019,0.00000650,0.00001272,-0.00376566,0.00000946,-0.000004
 86,0.01192323,-0.00000820,0.00001035,0.00516846,-0.00000940,0.00001209
 ,-0.00218370,-0.00000070,-0.00000706,-0.05943255,0.00000330,-0.0000088
 0,0.09287588,0.02890539,-0.00000104,-0.10220359,0.08834552,-0.00000047
 ,-0.44088040,0.05899118,-0.00000104,-0.13624934,-0.01965397,0.00000089
 ,0.01313571,0.01372877,-0.00000120,-0.06937963,-0.00354825,0.00000399,
 -0.00472608,0.00686355,0.00000027,0.00602161,-0.08478224,0.00000107,-0
 .19390517,-0.08884996,-0.00000248,0.92818688\\-0.00048513,0.,0.0000115
 2,0.00001036,0.,0.00010098,-0.00038120,0.,0.00011417,0.00012292,0.,0.0
 0008940,0.00037195,0.,0.00017834,0.00004463,0.,-0.00017121,-0.00019377
 ,0.,0.00003140,0.00063022,0.,0.00018202,-0.00011998,0.,-0.00053662\\\@

 ABALONE: AN EXPRESSION OF DISBELIEF.
 Job cpu time:  0 days  0 hours 20 minutes 47.6 seconds.
 File lengths (MBytes):  RWF=   17 Int=    0 D2E=    0 Chk=    8 Scr=    1
 Normal termination of Gaussian 98.
