 Gaussian 98, Revision A.6,
 Gaussian 98:  IBM-RS6000-G98RevA.6 19-Oct-1998

 ------------------------
 #B3LYP/CEP-31G* opt freq
 ------------------------

 --------------------------------
 1H imidazole C3H4N2 casno=288324
 --------------------------------
 Symbolic Z-matrix:
 Charge =  0 Multiplicity = 1

 SCF Done:  E(RB+HF-LYP) =  -39.0594409652     A.U. after   15 cycles
 SCF Done:  E(RB+HF-LYP) =  -39.1276725259     A.U. after   13 cycles
 SCF Done:  E(RB+HF-LYP) =  -39.1437987782     A.U. after   14 cycles
 SCF Done:  E(RB+HF-LYP) =  -39.1441263811     A.U. after   10 cycles
 SCF Done:  E(RB+HF-LYP) =  -39.1442267107     A.U. after   10 cycles
 SCF Done:  E(RB+HF-LYP) =  -39.1442348741     A.U. after    9 cycles
 Optimization completed.
    -- Stationary point found.
 Normal termination of Gaussian 98.

 ----------------------------------------------------
 #N Geom=AllCheck Guess=TCheck RB3LYP/CEP-31G(d) Freq
 ----------------------------------------------------

 1H imidazole C3H4N2 casno=288324
 --------------------------------
 Redundant internal coordinates taken from checkpointfile:
 /wrk/rdj3/Gau-15760.chk
 Charge =  0 Multiplicity = 1

                         Standard orientation:
 ---------------------------------------------------------------------
 Center     Atomic     Atomic              Coordinates (Angstroms)
 Number     Number      Type              X           Y           Z
 ---------------------------------------------------------------------
    1          7             0       -0.761641   -1.015334    0.000000
    2          1             0       -0.005351    2.113684    0.000000
    3          6             0        1.129752    0.280820    0.000000
    4          1             0        2.139122    0.686602    0.000000
    5          6             0        0.626491   -1.023892    0.000000
    6          1             0        1.188403   -1.957434    0.000000
    7          1             0       -2.123774    0.654800    0.000000
    8          6             0       -1.103792    0.267339    0.000000
    9          7             0        0.000000    1.096390    0.000000
 ---------------------------------------------------------------------

 SCF Done:  E(RB+HF-LYP) =  -39.1442348741     A.U. after    1 cycles

  The electronic state is 1-A'.
 Alpha  occ. eigenvalues --   -1.01133  -0.87204  -0.74286  -0.61803  -0.58880
 Alpha  occ. eigenvalues --   -0.55989  -0.43880  -0.43676  -0.42545  -0.40605
 Alpha  occ. eigenvalues --   -0.28275  -0.27131  -0.22799
 Alpha virt. eigenvalues --    0.01895   0.05826   0.07297   0.13294   0.14317
 Alpha virt. eigenvalues --    0.17234   0.18170   0.21252   0.23596   0.27050
 Alpha virt. eigenvalues --    0.29784   0.30120   0.34542   0.34635   0.37437

  Exact polarizability:  49.226  -0.291  48.320  -0.020  -0.041  22.986
 Approx polarizability:  77.951   2.688  81.569   0.000   0.000  32.647

                     1                      2                      3
                    A"                     A"                     A"
 Frequencies --   526.5958               629.9475               667.4146
 Red. masses --     1.6193                 2.2640                 3.0187
 Frc consts  --     0.2646                 0.5293                 0.7923
 IR Inten    --    93.7270                15.5693                 1.2903
 Raman Activ --     0.0000                 0.0000                 0.0000

                     4                      5                      6
                    A"                     A"                     A"
 Frequencies --   727.6824               818.8239               857.1207
 Red. masses --     1.2334                 1.2964                 1.3167
 Frc consts  --     0.3848                 0.5121                 0.5699
 IR Inten    --    60.5986                64.3380                 4.9801
 Raman Activ --     0.0000                 0.0000                 0.0000

                     7                      8                      9
                    A'                     A'                     A'
 Frequencies --   882.3653               920.0474              1065.4550
 Red. masses --     5.3259                 4.5634                 1.5711
 Frc consts  --     2.4431                 2.2759                 1.0508
 IR Inten    --     6.9440                 2.3493                40.9568
 Raman Activ --     0.0000                 0.0000                 0.0000

                    10                     11                     12
                    A'                     A'                     A'
 Frequencies --  1083.5096              1135.9861              1160.0250
 Red. masses --     1.4876                 1.3867                 5.8927
 Frc consts  --     1.0290                 1.0544                 4.6720
 IR Inten    --    22.9873                 5.4770                 4.0271
 Raman Activ --     0.0000                 0.0000                 0.0000

                    13                     14                     15
                    A'                     A'                     A'
 Frequencies --  1267.9669              1360.1257              1415.0193
 Red. masses --     1.3264                 3.6470                 3.0427
 Frc consts  --     1.2564                 3.9750                 3.5895
 IR Inten    --     0.7788                 5.2590                13.3915
 Raman Activ --     0.0000                 0.0000                 0.0000

                    16                     17                     18
                    A'                     A'                     A'
 Frequencies --  1500.4871              1554.0273              3238.6609
 Red. masses --     3.2599                 3.5060                 1.0917
 Frc consts  --     4.3243                 4.9887                 6.7466
 IR Inten    --    20.2088                11.8948                 7.1242
 Raman Activ --     0.0000                 0.0000                 0.0000

                    19                     20                     21
                    A'                     A'                     A'
 Frequencies --  3247.0270              3271.9038              3648.4928
 Red. masses --     1.0974                 1.1056                 1.0818
 Frc consts  --     6.8167                 6.9738                 8.4847
 IR Inten    --     3.3651                 4.1251                46.2440
 Raman Activ --     0.0000                 0.0000                 0.0000

 - Thermochemistry -
 -------------------
 Temperature   298.150 Kelvin.  Pressure   1.00000 Atm.
 Atom  1 has atomic number  7 and mass  14.00307

 Molecular mass:    68.03745 amu.
 Principal axes and moments of inertia in atomic units:
                           1         2         3
     EIGENVALUES --   188.43812 197.58421 386.02233
           X            0.46051   0.88766   0.00000
           Y            0.88766  -0.46051   0.00000
           Z            0.00000   0.00000   1.00000
 THIS MOLECULE IS AN ASYMMETRIC TOP.
 ROTATIONAL SYMMETRY NUMBER  1.
 ROTATIONAL TEMPERATURES (KELVIN)      0.45964     0.43836     0.22437
 ROTATIONAL CONSTANTS (GHZ)            9.57737     9.13404     4.67522
 Zero-point vibrational energy     185293.7 (Joules/Mol)
                                   44.28626 (Kcal/Mol)
 WARNING-- EXPLICIT CONSIDERATION OF   1 DEGREES OF FREEDOM AS
           VIBRATIONS MAY CAUSE SIGNIFICANT ERROR
 VIBRATIONAL TEMPERATURES:    757.65   906.35   960.26  1046.97  1178.10
          (KELVIN)           1233.20  1269.52  1323.74  1532.94  1558.92
                             1634.42  1669.01  1824.31  1956.91  2035.89
                             2158.85  2235.89  4659.68  4671.72  4707.51
                             5249.34

 Zero-point correction=                           0.070575 (Hartree/Particle)
 Thermal correction to Energy=                    0.074363
 Thermal correction to Enthalpy=                  0.075307
 Thermal correction to Gibbs Free Energy=         0.044265
 Sum of electronic and zero-point Energies=            -39.073660
 Sum of electronic and thermal Energies=               -39.069872
 Sum of electronic and thermal Enthalpies=             -39.068928
 Sum of electronic and thermal Free Energies=          -39.099970

                     E (Thermal)             CV                S
                      KCAL/MOL        CAL/MOL-KELVIN    CAL/MOL-KELVIN
 TOTAL                   46.664             13.583             65.335
 ELECTRONIC               0.000              0.000              0.000
 TRANSLATIONAL            0.889              2.981             38.570
 ROTATIONAL               0.889              2.981             24.178
 VIBRATIONAL             44.886              7.621              2.586
 VIBRATION  1             0.882              1.191              0.595
                       Q            LOG10(Q)             LN(Q)
 TOTAL BOT       0.436303D-20        -20.360212        -46.881120
 TOTAL V=0       0.126372D+13         12.101651         27.865082
 VIB (BOT)       0.460882D-32        -32.336410        -74.457336
 VIB (BOT)  1    0.304668D+00         -0.516174         -1.188534
 VIB (V=0)       0.133491D+01          0.125453          0.288865
 VIB (V=0)  1    0.108551D+01          0.035634          0.082050
 ELECTRONIC      0.100000D+01          0.000000          0.000000
 TRANSLATIONAL   0.220588D+08          7.343582         16.909224
 ROTATIONAL      0.429157D+05          4.632616         10.666993
 ***** Axes restored to original set *****
 -------------------------------------------------------------------
 Center     Atomic                   Forces (Hartrees/Bohr)
 Number     Number              X              Y              Z
 -------------------------------------------------------------------
    1          7           0.000253825    0.000000000    0.000131561
    2          1          -0.000024748    0.000000000   -0.000029198
    3          6           0.000297888    0.000000000   -0.000042120
    4          1          -0.000059951    0.000000000   -0.000030864
    5          6          -0.000291512    0.000000000   -0.000115184
    6          1          -0.000007493    0.000000000    0.000083485
    7          1           0.000091789    0.000000000   -0.000027478
    8          6          -0.000366074    0.000000000   -0.000231786
    9          7           0.000106273    0.000000000    0.000261584
 -------------------------------------------------------------------
 Cartesian Forces:  Max     0.000366074 RMS     0.000144038

 GradGradGradGradGradGradGradGradGradGradGradGradGradGradGradGradGradGrad
 Berny optimization.
 Internal  Forces:  Max     0.000271124 RMS     0.000073628
 Search for a local minimum.
 Step number   1 out of a maximum of  48
 All quantities printed in internal units (Hartrees-Bohrs-Radians)
 Second derivative matrix not updated -- analytic derivatives used.
     Eigenvalues ---    0.00539   0.01083   0.02078   0.02802   0.05769
     Eigenvalues ---    0.05996   0.09504   0.10162   0.10775   0.11831
     Eigenvalues ---    0.22826   0.24023   0.34239   0.36943   0.37134
     Eigenvalues ---    0.37406   0.40017   0.43759   0.46640   0.47593
     Eigenvalues ---    0.562661000.000001000.000001000.000001000.00000
     Eigenvalues --- 1000.000001000.000001000.000001000.000001000.00000
     Eigenvalues --- 1000.000001000.000001000.000001000.000001000.00000
     Eigenvalues --- 1000.000001000.000001000.00000
 Angle between quadratic step and forces=  26.03 degrees.
 Linear search not attempted -- first point.
 Iteration  1 RMS(Cart)=  0.00022014 RMS(Int)=  0.00000004
 Iteration  2 RMS(Cart)=  0.00000005 RMS(Int)=  0.00000000
 Variable       Old X    -DE/DX   Delta X   Delta X   Delta X     New X
                                 (Linear)    (Quad)   (Total)
    R1        2.62324   0.00020   0.00000   0.00076   0.00076   2.62400
    R2        2.50865   0.00004   0.00000   0.00008   0.00008   2.50874
    R3        1.92243   0.00002   0.00000   0.00004   0.00004   1.92248
    R4        2.05580   0.00007   0.00000   0.00019   0.00019   2.05599
    R5        2.64261   0.00000   0.00000  -0.00005  -0.00005   2.64256
    R6        2.63310  -0.00014   0.00000  -0.00035  -0.00035   2.63275
    R7        2.05906   0.00006   0.00000   0.00014   0.00014   2.05920
    R8        2.06187   0.00009   0.00000   0.00028   0.00028   2.06215
    R9        2.60870  -0.00027   0.00000  -0.00074  -0.00074   2.60796
    A1        1.83764  -0.00010   0.00000  -0.00034  -0.00034   1.83730
    A2        2.32118  -0.00004   0.00000  -0.00026  -0.00026   2.32092
    A3        2.13408  -0.00002   0.00000   0.00004   0.00004   2.13411
    A4        1.82793   0.00006   0.00000   0.00022   0.00022   1.82815
    A5        1.93277  -0.00009   0.00000  -0.00030  -0.00030   1.93248
    A6        2.11879  -0.00001   0.00000  -0.00045  -0.00045   2.11833
    A7        2.23163   0.00010   0.00000   0.00075   0.00075   2.23238
    A8        2.19451  -0.00003   0.00000  -0.00015  -0.00015   2.19436
    A9        1.95432   0.00010   0.00000   0.00035   0.00035   1.95466
   A10        2.13436  -0.00006   0.00000  -0.00020  -0.00020   2.13416
   A11        2.20133  -0.00005   0.00000  -0.00034  -0.00034   2.20099
   A12        2.20974   0.00001   0.00000   0.00028   0.00028   2.21002
   A13        1.87212   0.00004   0.00000   0.00006   0.00006   1.87218
    D1        0.00000   0.00000   0.00000   0.00000   0.00000   0.00000
    D2        3.14159   0.00000   0.00000   0.00000   0.00000   3.14159
    D3        3.14159   0.00000   0.00000   0.00000   0.00000   3.14159
    D4        0.00000   0.00000   0.00000   0.00000   0.00000   0.00000
    D5        3.14159   0.00000   0.00000   0.00000   0.00000   3.14159
    D6        0.00000   0.00000   0.00000   0.00000   0.00000   0.00000
    D7        0.00000   0.00000   0.00000   0.00000   0.00000   0.00000
    D8        3.14159   0.00000   0.00000   0.00000   0.00000   3.14159
    D9        0.00000   0.00000   0.00000   0.00000   0.00000   0.00000
   D10        3.14159   0.00000   0.00000   0.00000   0.00000   3.14159
   D11        3.14159   0.00000   0.00000   0.00000   0.00000   3.14159
   D12        0.00000   0.00000   0.00000   0.00000   0.00000   0.00000
   D13        3.14159   0.00000   0.00000   0.00000   0.00000   3.14159
   D14        0.00000   0.00000   0.00000   0.00000   0.00000   0.00000
   D15        0.00000   0.00000   0.00000   0.00000   0.00000   0.00000
   D16        3.14159   0.00000   0.00000   0.00000   0.00000   3.14159
         Item               Value     Threshold  Converged?
 Maximum Force            0.000271     0.000450     YES
 RMS     Force            0.000074     0.000300     YES
 Maximum Displacement     0.000595     0.001800     YES
 RMS     Displacement     0.000220     0.001200     YES
 Predicted change in Energy=-3.452157D-07
 Optimization completed.
    -- Stationary point found.
                         ----------------------------
                         !   Optimized Parameters   !
                         ! (Angstroms and Degrees)  !
 ------------------------                            -------------------------
 ! Name  Definition              Value          Derivative Info.             !
 -----------------------------------------------------------------------------
 ! R1    R(1,5)                  1.3882         -DE/DX =    0.0002           !
 ! R2    R(1,8)                  1.3275         -DE/DX =    0.               !
 ! R3    R(2,9)                  1.0173         -DE/DX =    0.               !
 ! R4    R(3,4)                  1.0879         -DE/DX =    0.0001           !
 ! R5    R(3,5)                  1.3984         -DE/DX =    0.               !
 ! R6    R(3,9)                  1.3934         -DE/DX =   -0.0001           !
 ! R7    R(5,6)                  1.0896         -DE/DX =    0.0001           !
 ! R8    R(7,8)                  1.0911         -DE/DX =    0.0001           !
 ! R9    R(8,9)                  1.3805         -DE/DX =   -0.0003           !
 ! A1    A(5,1,8)              105.289          -DE/DX =   -0.0001           !
 ! A2    A(4,3,5)              132.9938         -DE/DX =    0.               !
 ! A3    A(4,3,9)              122.2735         -DE/DX =    0.               !
 ! A4    A(5,3,9)              104.7327         -DE/DX =    0.0001           !
 ! A5    A(1,5,3)              110.7397         -DE/DX =   -0.0001           !
 ! A6    A(1,5,6)              121.3975         -DE/DX =    0.               !
 ! A7    A(3,5,6)              127.8628         -DE/DX =    0.0001           !
 ! A8    A(1,8,7)              125.7361         -DE/DX =    0.               !
 ! A9    A(1,8,9)              111.9742         -DE/DX =    0.0001           !
 ! A10   A(7,8,9)              122.2897         -DE/DX =   -0.0001           !
 ! A11   A(2,9,3)              126.127          -DE/DX =    0.               !
 ! A12   A(2,9,8)              126.6086         -DE/DX =    0.               !
 ! A13   A(3,9,8)              107.2644         -DE/DX =    0.               !
 ! D1    D(8,1,5,3)              0.             -DE/DX =    0.               !
 ! D2    D(8,1,5,6)            180.             -DE/DX =    0.               !
 ! D3    D(5,1,8,7)            180.             -DE/DX =    0.               !
 ! D4    D(5,1,8,9)              0.             -DE/DX =    0.               !
 ! D5    D(4,3,5,1)            180.             -DE/DX =    0.               !
 ! D6    D(4,3,5,6)              0.             -DE/DX =    0.               !
 ! D7    D(9,3,5,1)              0.             -DE/DX =    0.               !
 ! D8    D(9,3,5,6)            180.             -DE/DX =    0.               !
 ! D9    D(4,3,9,2)              0.             -DE/DX =    0.               !
 ! D10   D(4,3,9,8)            180.             -DE/DX =    0.               !
 ! D11   D(5,3,9,2)            180.             -DE/DX =    0.               !
 ! D12   D(5,3,9,8)              0.             -DE/DX =    0.               !
 ! D13   D(1,8,9,2)            180.             -DE/DX =    0.               !
 ! D14   D(1,8,9,3)              0.             -DE/DX =    0.               !
 ! D15   D(7,8,9,2)              0.             -DE/DX =    0.               !
 ! D16   D(7,8,9,3)            180.             -DE/DX =    0.               !
 -----------------------------------------------------------------------------
 GradGradGradGradGradGradGradGradGradGradGradGradGradGradGradGradGradGrad

 1\1\GINC-INDIUM\Freq\RB3LYP\CEP-31G(d)\C3H4N2\RDJ3\12-Sep-2000\0\\#N G
 EOM=ALLCHECK GUESS=TCHECK RB3LYP/CEP-31G(D) FREQ\\1H imidazole C3H4N2
 casno=288324\\0,1\N,0.5043802747,0.,1.1647323064\H,0.4972081011,0.,-2.
 0543787418\C,-1.0333530802,0.,-0.5360797096\H,-1.9205432024,0.,-1.1656
 674078\C,-0.8476148564,0.,0.8499385092\H,-1.611393135,0.,1.627041275\H
 ,2.2178554149,0.,-0.1424617241\C,1.1357013159,0.,-0.003064954\N,0.2552
 07586,0.,-1.0662740632\\Version=IBM-RS6000-G98RevA.6\State=1-A'\HF=-39
 .1442349\RMSD=2.338e-09\RMSF=1.440e-04\Dipole=-0.1220302,0.,-1.5037663
 \DipoleDeriv=-0.3634456,0.0005504,-0.0431356,0.000003,-0.2776188,-0.00
 01372,-0.00734,0.0004616,-0.5806768,0.1782284,0.0002188,-0.0121106,0.0
 000236,0.3372195,0.0001098,-0.0029962,-0.0009122,0.1739274,-0.0004328,
 -0.0003957,-0.2989409,-0.0000248,-0.2123767,-0.0001398,-0.0688732,-0.0
 000242,0.1683201,0.0119465,0.0000958,-0.0465545,-0.0000235,0.2373966,0
 .0000901,-0.0842024,0.0000904,0.0340248,0.2110985,-0.0003119,0.025683,
 -0.0001961,-0.1752906,-0.0007124,-0.084337,-0.0006093,0.1492404,-0.003
 9093,-0.0000946,0.0643786,0.000137,0.190516,0.0006248,0.0985839,0.0004
 307,0.0234949,-0.0512456,0.0001228,0.0355289,0.0001391,0.1941523,0.000
 3034,0.0348943,-0.0000811,0.0681569,0.1177675,0.0000946,0.0819661,0.00
 0018,-0.0594022,0.0002853,0.0354082,-0.0000353,0.574515,-0.1000066,-0.
 0002799,0.1931844,-0.0000763,-0.2345962,-0.000424,0.0788619,0.0006795,
 -0.6110022\Polar=49.3089862,-0.009808,22.9864637,-0.0545456,-0.0446464
 ,48.2375775\PG=CS [SG(C3H4N2)]\NImag=0\\0.48856768,0.00000062,0.099008
 05,-0.06066289,0.00000529,0.55694663,-0.00308732,-0.00000159,-0.008114
 59,0.07874203,0.00000171,0.00675003,0.00000397,0.00000050,0.01141024,-
 0.00277309,0.00001041,-0.00354241,-0.09697275,-0.00000378,0.44908506,-
 0.03096530,0.00000348,-0.01203605,0.00701048,0.00000140,-0.00315622,0.
 72129557,-0.00000281,0.01631541,-0.00000306,-0.00000087,-0.00694793,0.
 00000296,0.00000375,0.10416371,-0.08436651,-0.00000349,-0.01802592,0.0
 2772051,-0.00000101,-0.00019173,0.16044627,-0.00000088,0.73376649,0.00
 156775,-0.00000126,0.00108528,0.00009706,0.00000080,0.00009614,-0.2523
 8809,0.00000106,-0.13961550,0.26639887,0.00000470,0.00661501,0.0000188
 4,-0.00000035,-0.00109829,0.00000273,0.00000267,-0.02053578,0.00000250
 ,-0.00000460,0.01797327,-0.00391995,-0.00000063,-0.00522079,-0.0010131
 5,0.00000072,0.00016529,-0.15086922,0.00000116,-0.16444332,0.15295895,
 -0.00000314,0.15637822,-0.26067686,-0.00000287,-0.03711611,-0.00889698
 ,-0.00000046,-0.00138585,-0.09366931,0.00000511,-0.02200647,0.00437771
 ,-0.00001668,-0.02054555,0.65166268,-0.00000307,-0.06618271,0.00000694
 ,-0.00000363,0.00205433,0.00001239,0.00000408,-0.06072972,0.00000179,0
 .00000203,-0.00164901,0.00000025,-0.00000670,0.12673744,-0.04638308,0.
 00000303,-0.10938138,0.00285782,-0.00000556,0.00046849,-0.03692449,-0.
 00000240,-0.39078675,0.00184375,-0.00000052,0.00359938,-0.15103073,0.0
 0000164,0.78429918,-0.01837048,-0.00000002,0.01975337,0.00084742,-0.00
 000237,-0.00005308,0.00805185,-0.00000232,-0.00555838,0.00004237,0.000
 00347,0.00081137,-0.19165769,0.00000113,0.14672644,0.20707585,0.000007
 00,-0.00512999,0.00000275,0.00000295,0.00205018,-0.00001263,-0.0000009
 8,-0.00082846,-0.00000562,0.00000238,-0.00176747,0.00000113,-0.0000009
 8,-0.02835160,-0.00000573,-0.00000340,0.02269034,-0.00683530,-0.000000
 68,0.01262272,0.00121919,0.00000421,0.00026624,0.01938543,0.00000152,-
 0.00662273,-0.00070639,-0.00000189,-0.00055514,0.15056687,-0.00000487,
 -0.21592366,-0.15858716,0.00000835,0.21478630,-0.00760752,0.00000041,0
 .00362552,-0.00047578,0.00000097,-0.00041956,0.00054124,-0.00000150,-0
 .00433493,-0.00034332,0.00000226,0.00040851,0.00159032,0.00000170,0.00
 374914,-0.00046305,0.00000342,-0.00009422,0.36550101,-0.00000073,-0.00
 492886,-0.00000582,0.00000194,-0.00122302,-0.00000440,-0.00000582,0.00
 291879,0.00000845,-0.00000615,0.00190306,-0.00000185,0.00000437,0.0069
 9288,-0.00000161,0.00000217,0.00104804,-0.00000204,-0.00000806,0.02128
 196,0.02877355,0.00000052,0.00071581,0.00042289,-0.00000039,0.00037370
 ,-0.00061098,0.00000018,-0.00567321,-0.00112830,-0.00000046,0.00103364
 ,0.00255000,0.00000066,-0.00457157,0.00151414,-0.00000017,0.00061161,-
 0.03845816,-0.00000129,0.06115575,-0.16471546,-0.00000226,0.11848568,0
 .01694361,0.00000178,0.01335822,-0.08641245,0.00000112,0.00818704,-0.0
 0352619,0.00000055,0.00385401,-0.08709797,-0.00000102,0.01245022,-0.00
 606319,0.00000038,-0.00364345,-0.34708068,0.00000375,0.03639539,0.8773
 9089,-0.00000234,-0.07262306,-0.00001123,0.00000185,-0.00821409,-0.000
 00736,-0.00000449,0.01440671,-0.00000069,0.00000026,0.00278652,0.00000
 033,0.00000705,0.00851283,0.00000503,0.00000225,0.00560211,-0.00000186
 ,0.00000076,-0.02581218,-0.00000013,-0.00000194,0.13096006,0.14117203,
 -0.00000943,-0.33399298,-0.01648154,-0.00000104,-0.00949008,-0.0442891
 0,0.00000266,-0.01040164,0.00353496,-0.00002311,-0.00580552,0.07286405
 ,-0.00000985,-0.00090154,-0.00159871,0.00000185,-0.00003457,0.03203374
 ,0.00000468,-0.06087600,-0.09014982,0.00001348,0.62986060,-0.00471251,
 0.00000348,-0.02502021,-0.09118052,-0.00000432,0.09130620,-0.27346398,
 -0.00000354,0.05952798,-0.01622616,0.00000799,0.01831504,-0.01563191,0
 .00000548,0.06671095,0.00053693,-0.00001077,-0.00130501,-0.01166222,0.
 00000852,-0.02945853,-0.19943855,-0.00000340,-0.09708565,0.61177894,-0
 .00000507,0.02017611,-0.00001768,-0.00000080,-0.00478145,-0.00000033,-
 0.00000409,-0.04876273,-0.00000105,0.00000546,-0.00422730,0.00000202,0
 .00001117,0.01261556,0.00000612,-0.00000092,0.00468686,-0.00000274,0.0
 0000003,-0.00218066,0.00000109,-0.00000235,-0.05561891,0.00002078,-0.0
 0000343,0.07809251,0.03499524,-0.00000502,-0.10012170,0.09036163,0.000
 00287,-0.43713455,0.06805436,-0.00000214,-0.13762119,-0.01806890,0.000
 00506,0.01484824,0.00610380,-0.00000893,-0.06680216,-0.00300800,0.0000
 1006,-0.00515075,0.00348995,0.00000386,0.00723029,-0.09893730,0.000002
 43,-0.20835826,-0.08299078,-0.00000821,0.93311008\\-0.00025383,0.,-0.0
 0013156,0.00002475,0.,0.00002920,-0.00029789,0.,0.00004212,0.00005995,
 0.,0.00003086,0.00029151,0.,0.00011518,0.00000749,0.,-0.00008349,-0.00
 009179,0.,0.00002748,0.00036607,0.,0.00023179,-0.00010627,0.,-0.000261
 58\\\@

 ... IT CAN BE VERY DIFFICULT, IN THESE COMPLEX TIMES,
 TO UNDERSTAND JUST HOW SCIENTISTS DO WHAT THEY DO.

                     DON MOSER IN THE FEBRUARY 1979 SMITHSONIAN
 Job cpu time:  0 days  0 hours  6 minutes 53.8 seconds.
 File lengths (MBytes):  RWF=   17 Int=    0 D2E=    0 Chk=    8 Scr=    1
 Normal termination of Gaussian 98.
