 Gaussian 98, Revision A.4,
 Gaussian 98:  x86-Linux-G98RevA.4 11-Sep-1998

 ---------------------
 #B3LYP/3-21G opt freq
 ---------------------

 --------------------------------
 1H imidazole C3H4N2 casno=288324
 --------------------------------
 Symbolic Z-matrix:
 Charge =  0 Multiplicity = 1

 SCF Done:  E(RB+HF-LYP) =  -224.885210604     A.U. after   14 cycles
 SCF Done:  E(RB+HF-LYP) =  -224.946443791     A.U. after   13 cycles
 SCF Done:  E(RB+HF-LYP) =  -224.958571051     A.U. after   13 cycles
 SCF Done:  E(RB+HF-LYP) =  -224.959092920     A.U. after   12 cycles
 SCF Done:  E(RB+HF-LYP) =  -224.959295622     A.U. after   10 cycles
 SCF Done:  E(RB+HF-LYP) =  -224.959329668     A.U. after    9 cycles
 SCF Done:  E(RB+HF-LYP) =  -224.959330842     A.U. after    8 cycles
 Optimization completed.
    -- Stationary point found.
 Normal termination of Gaussian 98.

 -----------------------------------------------
 #N Geom=AllCheck Guess=TCheck RB3LYP/3-21G Freq
 -----------------------------------------------

 1H imidazole C3H4N2 casno=288324
 --------------------------------
 Redundant internal coordinates taken from checkpointfile:
 /wrk/rdj3/Gau-30393.chk
 Charge =  0 Multiplicity = 1

                         Standard orientation:
 ---------------------------------------------------------------------
 Center     Atomic     Atomic              Coordinates (Angstroms)
 Number     Number      Type              X           Y           Z
 ---------------------------------------------------------------------
    1          7             0       -0.750981   -0.991850    0.000000
    2          1             0        0.001511    2.128200    0.000000
    3          6             0        1.129491    0.296935    0.000000
    4          1             0        2.129198    0.691804    0.000000
    5          6             0        0.651207   -0.991207    0.000000
    6          1             0        1.211488   -1.908992    0.000000
    7          1             0       -2.116321    0.664103    0.000000
    8          6             0       -1.108866    0.286958    0.000000
    9          7             0        0.000000    1.115959    0.000000
 ---------------------------------------------------------------------

 SCF Done:  E(RB+HF-LYP) =  -224.959330842     A.U. after    1 cycles

  The electronic state is 1-A'.
 Alpha  occ. eigenvalues --  -14.31372 -14.22836 -10.17901 -10.15682 -10.13461
 Alpha  occ. eigenvalues --   -1.01553  -0.87065  -0.74430  -0.61391  -0.58986
 Alpha  occ. eigenvalues --   -0.56398  -0.44276  -0.44113  -0.42405  -0.41066
 Alpha  occ. eigenvalues --   -0.27294  -0.24627  -0.23115
 Alpha virt. eigenvalues --    0.03374   0.07807   0.09483   0.15060   0.16839
 Alpha virt. eigenvalues --    0.19131   0.23474   0.25751   0.36239   0.39793
 Alpha virt. eigenvalues --    0.46796   0.68647   0.70807   0.72358   0.75261

  Exact polarizability:  44.395  -1.884  42.736  -0.001  -0.001  12.825
 Approx polarizability:  70.256   1.619  75.678   0.000   0.000  16.102

                     1                      2                      3
                    A"                     A"                     A"
 Frequencies --   635.1949               657.3131               686.0156
 Red. masses --     1.8918                 1.5032                 3.1734
 Frc consts  --     0.4497                 0.3827                 0.8799
 IR Inten    --   123.7369                46.3933                 4.1132
 Raman Activ --     0.0000                 0.0000                 0.0000

                     4                      5                      6
                    A"                     A"                     A"
 Frequencies --   774.8109               849.3275               916.0443
 Red. masses --     1.2467                 1.4133                 1.3949
 Frc consts  --     0.4410                 0.6007                 0.6896
 IR Inten    --    33.8941                24.4505                 2.6132
 Raman Activ --     0.0000                 0.0000                 0.0000

                     7                      8                      9
                    A'                     A'                     A'
 Frequencies --   920.1447               962.7456              1051.0809
 Red. masses --     6.1042                 4.3273                 2.1370
 Frc consts  --     3.0450                 2.3631                 1.3910
 IR Inten    --    11.3075                 2.7241                24.2196
 Raman Activ --     0.0000                 0.0000                 0.0000

                    10                     11                     12
                    A'                     A'                     A'
 Frequencies --  1086.8370              1101.7510              1156.6831
 Red. masses --     1.9457                 5.9035                 1.3778
 Frc consts  --     1.3541                 4.2221                 1.0861
 IR Inten    --    12.5179                18.9271                 1.4150
 Raman Activ --     0.0000                 0.0000                 0.0000

                    13                     14                     15
                    A'                     A'                     A'
 Frequencies --  1281.4269              1323.9390              1395.0585
 Red. masses --     1.6641                 2.5947                 1.9907
 Frc consts  --     1.6099                 2.6796                 2.2827
 IR Inten    --     1.9142                10.3764                11.2421
 Raman Activ --     0.0000                 0.0000                 0.0000

                    16                     17                     18
                    A'                     A'                     A'
 Frequencies --  1464.4809              1535.0998              3291.8214
 Red. masses --     2.5130                 2.5164                 1.0924
 Frc consts  --     3.1755                 3.4938                 6.9742
 IR Inten    --     6.1619                19.4548                 4.3248
 Raman Activ --     0.0000                 0.0000                 0.0000

                    19                     20                     21
                    A'                     A'                     A'
 Frequencies --  3294.0005              3318.4836              3586.5961
 Red. masses --     1.0950                 1.1071                 1.0816
 Frc consts  --     7.0001                 7.1830                 8.1975
 IR Inten    --     0.2111                 1.1592                48.5845
 Raman Activ --     0.0000                 0.0000                 0.0000

 - Thermochemistry -
 -------------------
 Temperature   298.150 Kelvin.  Pressure   1.00000 Atm.
 Atom  1 has atomic number  7 and mass  14.00307

 Molecular mass:    68.03745 amu.
 Principal axes and moments of inertia in atomic units:
                           1         2         3
     EIGENVALUES --   190.02870 194.82320 384.85190
           X            0.52984   0.84810   0.00000
           Y            0.84810  -0.52984   0.00000
           Z            0.00000   0.00000   1.00000
 THIS MOLECULE IS AN ASYMMETRIC TOP.
 ROTATIONAL SYMMETRY NUMBER  1.
 ROTATIONAL TEMPERATURES (KELVIN)      0.45579     0.44457     0.22506
 ROTATIONAL CONSTANTS (GHZ)            9.49720     9.26348     4.68944
 Zero-point vibrational energy     187148.9 (Joules/Mol)
                                   44.72967 (Kcal/Mol)
 VIBRATIONAL TEMPERATURES:    913.90   945.72   987.02  1114.77  1221.99
          (KELVIN)           1317.98  1323.88  1385.17  1512.26  1563.71
                             1585.16  1664.20  1843.68  1904.84  2007.17
                             2107.05  2208.65  4736.17  4739.30  4774.53
                             5160.28

 Zero-point correction=                           0.071281 (Hartree/Particle)
 Thermal correction to Energy=                    0.074940
 Thermal correction to Enthalpy=                  0.075885
 Thermal correction to Gibbs Free Energy=         0.045032
 Sum of electronic and zero-point Energies=           -224.888050
 Sum of electronic and thermal Energies=              -224.884390
 Sum of electronic and thermal Enthalpies=            -224.883446
 Sum of electronic and thermal Free Energies=         -224.914299

                     E (Thermal)             CV                S
                      KCAL/MOL        CAL/MOL-KELVIN    CAL/MOL-KELVIN
 TOTAL                   47.026             13.009             64.935
 ELECTRONIC               0.000              0.000              0.000
 TRANSLATIONAL            0.889              2.981             38.570
 ROTATIONAL               0.889              2.981             24.170
 VIBRATIONAL             45.248              7.047              2.195
                       Q            LOG10(Q)             LN(Q)
 TOTAL BOT       0.193560D-20        -20.713184        -47.693869
 TOTAL V=0       0.118495D+13         12.073700         27.800721
 VIB (BOT)       0.205356D-32        -32.687493        -75.265734
 VIB (V=0)       0.125716D+01          0.099391          0.228857
 ELECTRONIC      0.100000D+01          0.000000          0.000000
 TRANSLATIONAL   0.220588D+08          7.343582         16.909224
 ROTATIONAL      0.427293D+05          4.630726         10.662641
 ***** Axes restored to original set *****
 -------------------------------------------------------------------
 Center     Atomic                   Forces (Hartrees/Bohr)
 Number     Number              X              Y              Z
 -------------------------------------------------------------------
    1          7           0.000246881    0.000000000    0.000099560
    2          1           0.000005843    0.000000000   -0.000034627
    3          6           0.000322221    0.000000000   -0.000220904
    4          1          -0.000054052    0.000000000   -0.000009007
    5          6          -0.000334560    0.000000000    0.000063567
    6          1          -0.000006339    0.000000000    0.000052235
    7          1           0.000071641    0.000000000   -0.000006976
    8          6          -0.000201135    0.000000000   -0.000288020
    9          7          -0.000050499    0.000000000    0.000344172
 -------------------------------------------------------------------
 Cartesian Forces:  Max     0.000344172 RMS     0.000148581

 GradGradGradGradGradGradGradGradGradGradGradGradGradGradGradGradGradGrad
 Berny optimization.
 Internal  Forces:  Max     0.000231865 RMS     0.000077219
 Search for a local minimum.
 Step number   1 out of a maximum of  48
 All quantities printed in internal units (Hartrees-Bohrs-Radians)
 Second derivative matrix not updated -- analytic derivatives used.
     Eigenvalues ---    0.00761   0.01280   0.02161   0.02845   0.06418
     Eigenvalues ---    0.06566   0.09945   0.10779   0.11204   0.11702
     Eigenvalues ---    0.22010   0.23271   0.30809   0.36869   0.38197
     Eigenvalues ---    0.38336   0.38971   0.42916   0.45800   0.47579
     Eigenvalues ---    0.546871000.000001000.000001000.000001000.00000
     Eigenvalues --- 1000.000001000.000001000.000001000.000001000.00000
     Eigenvalues --- 1000.000001000.000001000.000001000.000001000.00000
     Eigenvalues --- 1000.000001000.000001000.00000
 Angle between quadratic step and forces=  20.06 degrees.
 Linear search not attempted -- first point.
 Iteration  1 RMS(Cart)=  0.00022547 RMS(Int)=  0.00000005
 Iteration  2 RMS(Cart)=  0.00000005 RMS(Int)=  0.00000001
 Variable       Old X    -DE/DX   Delta X   Delta X   Delta X     New X
                                 (Linear)    (Quad)   (Total)
    R1        2.64975   0.00023   0.00000   0.00093   0.00093   2.65068
    R2        2.50945   0.00007   0.00000   0.00019   0.00019   2.50964
    R3        1.91286   0.00003   0.00000   0.00009   0.00009   1.91295
    R4        2.03120   0.00005   0.00000   0.00014   0.00014   2.03134
    R5        2.59661   0.00011   0.00000   0.00025   0.00025   2.59686
    R6        2.63652  -0.00019   0.00000  -0.00065  -0.00065   2.63588
    R7        2.03200   0.00004   0.00000   0.00007   0.00007   2.03207
    R8        2.03284   0.00007   0.00000   0.00020   0.00020   2.03304
    R9        2.61632  -0.00023   0.00000  -0.00073  -0.00073   2.61559
    A1        1.84321  -0.00006   0.00000  -0.00026  -0.00026   1.84296
    A2        2.30249  -0.00005   0.00000  -0.00038  -0.00038   2.30211
    A3        2.13803   0.00000   0.00000   0.00019   0.00019   2.13821
    A4        1.84267   0.00005   0.00000   0.00020   0.00020   1.84286
    A5        1.92678  -0.00013   0.00000  -0.00043  -0.00043   1.92634
    A6        2.11842   0.00004   0.00000  -0.00017  -0.00017   2.11825
    A7        2.23799   0.00010   0.00000   0.00061   0.00061   2.23859
    A8        2.20188  -0.00003   0.00000  -0.00026  -0.00026   2.20162
    A9        1.93989   0.00004   0.00000   0.00017   0.00017   1.94006
   A10        2.14142  -0.00002   0.00000   0.00009   0.00009   2.14151
   A11        2.19670  -0.00005   0.00000  -0.00016  -0.00016   2.19654
   A12        2.21426  -0.00005   0.00000  -0.00016  -0.00016   2.21410
   A13        1.87223   0.00010   0.00000   0.00032   0.00032   1.87255
    D1        0.00000   0.00000   0.00000   0.00000   0.00000   0.00000
    D2        3.14159   0.00000   0.00000   0.00000   0.00000   3.14159
    D3        3.14159   0.00000   0.00000   0.00000   0.00000   3.14159
    D4        0.00000   0.00000   0.00000   0.00000   0.00000   0.00000
    D5        3.14159   0.00000   0.00000   0.00000   0.00000   3.14159
    D6        0.00000   0.00000   0.00000   0.00000   0.00000   0.00000
    D7        0.00000   0.00000   0.00000   0.00000   0.00000   0.00000
    D8        3.14159   0.00000   0.00000   0.00000   0.00000   3.14159
    D9        0.00000   0.00000   0.00000   0.00000   0.00000   0.00000
   D10        3.14159   0.00000   0.00000   0.00000   0.00000   3.14159
   D11        3.14159   0.00000   0.00000   0.00000   0.00000   3.14159
   D12        0.00000   0.00000   0.00000   0.00000   0.00000   0.00000
   D13        3.14159   0.00000   0.00000   0.00000   0.00000   3.14159
   D14        0.00000   0.00000   0.00000   0.00000   0.00000   0.00000
   D15        0.00000   0.00000   0.00000   0.00000   0.00000   0.00000
   D16        3.14159   0.00000   0.00000   0.00000   0.00000   3.14159
         Item               Value     Threshold  Converged?
 Maximum Force            0.000232     0.000450     YES
 RMS     Force            0.000077     0.000300     YES
 Maximum Displacement     0.000555     0.001800     YES
 RMS     Displacement     0.000225     0.001200     YES
 Predicted change in Energy=-3.938228D-07
 Optimization completed.
    -- Stationary point found.
                         ----------------------------
                         !   Optimized Parameters   !
                         ! (Angstroms and Degrees)  !
 ------------------------                            -------------------------
 ! Name  Definition              Value          Derivative Info.             !
 -----------------------------------------------------------------------------
 ! R1    R(1,5)                  1.4022         -DE/DX =    0.0002           !
 ! R2    R(1,8)                  1.3279         -DE/DX =    0.0001           !
 ! R3    R(2,9)                  1.0122         -DE/DX =    0.               !
 ! R4    R(3,4)                  1.0749         -DE/DX =    0.               !
 ! R5    R(3,5)                  1.3741         -DE/DX =    0.0001           !
 ! R6    R(3,9)                  1.3952         -DE/DX =   -0.0002           !
 ! R7    R(5,6)                  1.0753         -DE/DX =    0.               !
 ! R8    R(7,8)                  1.0757         -DE/DX =    0.0001           !
 ! R9    R(8,9)                  1.3845         -DE/DX =   -0.0002           !
 ! A1    A(5,1,8)              105.6084         -DE/DX =   -0.0001           !
 ! A2    A(4,3,5)              131.9231         -DE/DX =    0.               !
 ! A3    A(4,3,9)              122.4998         -DE/DX =    0.               !
 ! A4    A(5,3,9)              105.5771         -DE/DX =    0.               !
 ! A5    A(1,5,3)              110.3961         -DE/DX =   -0.0001           !
 ! A6    A(1,5,6)              121.3766         -DE/DX =    0.               !
 ! A7    A(3,5,6)              128.2273         -DE/DX =    0.0001           !
 ! A8    A(1,8,7)              126.1582         -DE/DX =    0.               !
 ! A9    A(1,8,9)              111.1475         -DE/DX =    0.               !
 ! A10   A(7,8,9)              122.6942         -DE/DX =    0.               !
 ! A11   A(2,9,3)              125.8614         -DE/DX =   -0.0001           !
 ! A12   A(2,9,8)              126.8677         -DE/DX =   -0.0001           !
 ! A13   A(3,9,8)              107.2709         -DE/DX =    0.0001           !
 ! D1    D(8,1,5,3)              0.             -DE/DX =    0.               !
 ! D2    D(8,1,5,6)            180.             -DE/DX =    0.               !
 ! D3    D(5,1,8,7)            180.             -DE/DX =    0.               !
 ! D4    D(5,1,8,9)              0.             -DE/DX =    0.               !
 ! D5    D(4,3,5,1)            180.             -DE/DX =    0.               !
 ! D6    D(4,3,5,6)              0.             -DE/DX =    0.               !
 ! D7    D(9,3,5,1)              0.             -DE/DX =    0.               !
 ! D8    D(9,3,5,6)            180.             -DE/DX =    0.               !
 ! D9    D(4,3,9,2)              0.             -DE/DX =    0.               !
 ! D10   D(4,3,9,8)            180.             -DE/DX =    0.               !
 ! D11   D(5,3,9,2)            180.             -DE/DX =    0.               !
 ! D12   D(5,3,9,8)              0.             -DE/DX =    0.               !
 ! D13   D(1,8,9,2)            180.             -DE/DX =    0.               !
 ! D14   D(1,8,9,3)              0.             -DE/DX =    0.               !
 ! D15   D(7,8,9,2)              0.             -DE/DX =    0.               !
 ! D16   D(7,8,9,3)            180.             -DE/DX =    0.               !
 -----------------------------------------------------------------------------
 GradGradGradGradGradGradGradGradGradGradGradGradGradGradGradGradGradGrad

 1\1\GINC-QCHEM8\Freq\RB3LYP\3-21G\C3H4N2\RDJ3\11-Oct-1999\0\\#N GEOM=A
 LLCHECK GUESS=TCHECK RB3LYP/3-21G FREQ\\1H imidazole C3H4N2 casno=2883
 24\\0,1\N,0.5039849343,0.,1.1374259717\H,0.4857169686,0.,-2.0720323255
 \C,-1.0315230832,0.,-0.5476126794\H,-1.9142896013,0.,-1.1608495379\C,-
 0.8608215861,0.,0.8158111698\H,-1.6163238363,0.,1.5809654834\H,2.21214
 92108,0.,-0.1619993111\C,1.1451105196,0.,-0.0254967068\N,0.2554653737,
 0.,-1.0863252588\\Version=x86-Linux-G98RevA.4\State=1-A'\HF=-224.95933
 08\RMSD=1.959e-09\RMSF=1.486e-04\Dipole=-0.1302484,0.,-1.5012714\Dipol
 eDeriv=-0.3506078,-0.0000422,0.0341769,-0.0000561,-0.2868585,-0.000064
 1,0.0238379,0.0000433,-0.4800842,0.2033827,-0.0000139,-0.0059709,-0.00
 00035,0.3811048,-0.0000243,-0.003717,0.0000652,0.1838936,-0.0374833,0.
 0000152,-0.2216254,-0.0001054,-0.1107637,-0.0001588,-0.0364902,-0.0000
 916,0.1986746,0.0298139,0.0000067,-0.039559,-0.0000265,0.193568,0.0000
 377,-0.066287,0.0000061,0.0452348,0.1365894,0.0000736,-0.1462274,0.000
 0507,-0.144992,0.0000585,-0.0838035,0.0000694,0.0738291,0.0090565,-0.0
 000289,0.0727667,-0.0000274,0.1582482,0.0000194,0.0698838,0.0000213,0.
 0350871,-0.0188655,0.0000198,0.0176723,-0.0000002,0.1719868,-0.0000225
 ,0.0396122,-0.000002,0.0743316,0.1353078,-0.0000233,0.1174938,0.000145
 3,-0.0115364,0.0000788,-0.0364563,-0.0000435,0.4354318,-0.1071931,-0.0
 00007,0.1712727,0.0000231,-0.3507572,0.0000753,0.0934201,-0.0000682,-0
 .5663977\Polar=45.1478327,-0.0004003,12.8249405,-1.3167785,-0.0006708,
 41.9831687\PG=CS [SG(C3H4N2)]\NImag=0\\0.42509083,0.00000206,0.1062950
 5,-0.05848795,0.00000102,0.50771440,-0.00310630,0.00000032,-0.00766492
 ,0.08223963,0.00000049,0.00610683,0.00000238,-0.00000024,0.01456710,-0
 .00287947,-0.00000193,-0.00279024,-0.08855508,0.00000030,0.43627646,-0
 .03850023,-0.00000054,-0.01815050,0.00560598,-0.00000011,-0.00526638,0
 .72367248,0.00000604,0.01890700,0.00001064,-0.00000020,-0.00483787,-0.
 00000406,-0.00000585,0.12637127,-0.08522281,0.00000430,-0.02688236,0.0
 3042921,-0.00000176,-0.00138000,0.18195542,-0.00000205,0.72075174,0.00
 162227,0.00000076,0.00162317,-0.00004031,0.00000047,0.00052983,-0.2631
 3838,0.00000451,-0.14385724,0.27671599,0.00000197,0.00687686,-0.000003
 51,0.00000063,-0.00129798,-0.00000246,-0.00000307,-0.02564030,0.000003
 32,0.00000064,0.02057813,-0.00325031,0.00000049,-0.00429851,-0.0009008
 2,0.00000033,0.00009780,-0.15400987,0.00000261,-0.16476515,0.15533734,
 0.00000020,0.15928185,-0.19198170,-0.00000494,-0.00907901,-0.00796218,
 -0.00000026,-0.00228069,-0.10082597,-0.00000835,-0.01792242,0.00504276
 ,-0.00000177,-0.02400783,0.61997129,-0.00000327,-0.07325400,-0.0000042
 4,0.,0.00317399,0.00000201,0.00000326,-0.07455381,0.00000076,-0.000002
 16,0.00051914,-0.00000127,0.00000368,0.14412716,-0.03561732,-0.0000049
 8,-0.09481045,0.00292879,0.00000029,0.00129334,-0.03106325,-0.00000594
 ,-0.36912765,0.00318614,-0.00000298,0.00150445,-0.18933884,0.00000309,
 0.77673161,-0.01959531,0.00000152,0.01948348,0.00075244,-0.00000084,0.
 00003154,0.00860537,-0.00000163,-0.00741394,-0.00018203,0.00000109,0.0
 0093299,-0.19958235,0.00000087,0.15376103,0.21413921,0.00000314,-0.004
 78871,-0.00000060,0.00000036,0.00159126,-0.00000238,-0.00000459,0.0010
 8972,0.00000014,0.00000177,-0.00265859,0.00000080,-0.00000208,-0.03216
 390,-0.00000227,-0.00000021,0.02472891,-0.00963604,-0.00000123,0.01103
 772,0.00109282,0.00000073,0.00017961,0.02273238,0.00000185,-0.00882092
 ,-0.00065624,-0.00000070,-0.00018117,0.15507568,-0.00000097,-0.2228648
 6,-0.16301283,0.00000054,0.22427429,-0.00715663,-0.00000064,0.00181864
 ,-0.00054918,0.00000024,-0.00082494,0.00169000,0.00000040,-0.00242619,
 -0.00027275,-0.00000091,0.00025056,0.00159230,-0.00000002,0.00142259,-
 0.00021737,-0.00000067,-0.00008907,0.37616391,-0.00000467,-0.00450538,
 0.00000993,-0.00000172,-0.00130427,0.00000546,0.00000244,0.00291164,-0
 .00000949,0.00000116,0.00153304,0.00000107,0.00000524,0.00734234,0.000
 00589,-0.00000339,0.00101103,0.00000249,0.00000326,0.02229321,0.029766
 99,0.00000007,-0.00221717,0.00053868,-0.00000003,0.00007989,-0.0006983
 2,-0.00000018,-0.00578910,-0.00088438,0.00000008,0.00113830,0.00228225
 ,0.00000007,-0.00351193,0.00123640,0.00000004,0.00075814,-0.03879661,-
 0.00000044,0.06211961,-0.15725755,0.00000099,0.09477348,0.01715130,0.0
 0000078,0.01594521,-0.10215578,0.00000592,-0.00187863,-0.00214608,-0.0
 0000008,0.00469495,-0.10537576,-0.00000251,0.02479956,-0.00450823,0.00
 000106,-0.00430008,-0.35872823,0.00000043,0.03783570,0.89581702,-0.000
 00281,-0.07917941,-0.00000666,0.00000023,-0.00544782,0.00000213,0.0000
 0292,0.01837585,-0.00000306,-0.00000326,0.00328553,-0.00000215,0.00000
 683,0.01033884,0.00000783,-0.00000068,0.00541018,0.00000041,-0.0000003
 8,-0.02827014,0.00000012,-0.00000272,0.14460714,0.13471703,-0.00000097
 ,-0.27711072,-0.01868613,-0.00000129,-0.01099590,-0.04784553,-0.000003
 04,-0.01026207,0.00363664,0.00000369,-0.00585359,0.07277308,0.00000070
 ,-0.01405444,-0.00155468,0.00000267,0.00034968,0.03326338,-0.00000674,
 -0.05758142,-0.10062153,0.00000275,0.55467159,-0.00911538,0.00000047,-
 0.02431639,-0.09409138,-0.00000052,0.08329997,-0.23495348,-0.00000085,
 0.04633659,-0.01760145,0.00000149,0.02095300,-0.02087842,0.00000015,0.
 06992131,0.00058829,0.00000123,-0.00120663,-0.01252203,-0.00000275,-0.
 03128071,-0.18279670,-0.00000014,-0.07568226,0.57137054,-0.00000293,0.
 02354175,-0.00000897,0.00000061,-0.01255125,0.00000094,0.00000554,-0.0
 6262350,0.00000784,-0.00000389,-0.00319584,-0.00000209,0.00000165,0.01
 447023,-0.00000093,0.00000326,0.00578011,-0.00000312,-0.00000128,-0.00
 101146,0.00000027,-0.00000389,-0.06912017,0.00000223,0.00000093,0.1047
 1013,0.03060988,0.00000323,-0.11064265,0.08081744,-0.00000094,-0.42276
 095,0.05234604,0.00000017,-0.13372451,-0.01891526,0.00000236,0.0130760
 3,0.01249780,-0.00000016,-0.07516007,-0.00346400,0.00000105,-0.0047324
 8,0.00538165,-0.00000817,0.00500367,-0.07124866,-0.00000136,-0.1791631
 4,-0.08802488,0.00000384,0.90810409\\-0.00024688,0.,-0.00009956,-0.000
 00584,0.,0.00003463,-0.00032222,0.,0.00022090,0.00005405,0.,0.00000901
 ,0.00033456,0.,-0.00006357,0.00000634,0.,-0.00005223,-0.00007164,0.,0.
 00000698,0.00020114,0.,0.00028802,0.00005050,0.,-0.00034417\\\@

 IT IS A SIMPLE TASK TO MAKE THINGS COMPLEX,
 BUT A COMPLEX TASK TO MAKE THEM SIMPLE.
 Job cpu time:  0 days  0 hours 11 minutes 57.4 seconds.
 File lengths (MBytes):  RWF=   10 Int=    0 D2E=    0 Chk=    3 Scr=    1
 Normal termination of Gaussian 98.
