 Gaussian 09, Revision A.02,
 Gaussian 09:  AM64L-G09RevA.02 11-Jun-2009

 --------------------
 #B3LYP/TZVP opt freq
 --------------------

 --------------------------------------------------
 1H imidazole C3H4N2 casno=288324 method=8 basis=32
 --------------------------------------------------
 Symbolic Z-matrix:
 Charge =  0 Multiplicity = 1

 SCF Done:  E(RB3LYP) =  -226.236000180     A.U. after   14 cycles
 SCF Done:  E(RB3LYP) =  -226.287431038     A.U. after   13 cycles
 SCF Done:  E(RB3LYP) =  -226.294935886     A.U. after   13 cycles
 SCF Done:  E(RB3LYP) =  -226.295226067     A.U. after   10 cycles
 SCF Done:  E(RB3LYP) =  -226.295325757     A.U. after   10 cycles
 SCF Done:  E(RB3LYP) =  -226.295331514     A.U. after    8 cycles
 Optimization completed.
    -- Stationary point found.
 Normal termination of Gaussian 09 at Tue Feb  1 08:53:02 2011.

 ----------------------------------------------------------------
 #N Geom=AllCheck Guess=TCheck SCRF=Check GenChk RB3LYP/TZVP Freq
 ----------------------------------------------------------------

 1H imidazole C3H4N2 casno=288324 method=8 basis=32
 --------------------------------------------------
 Redundant internal coordinates taken from checkpoint file:
 /gaussian/Gau-6739.chk
 Charge =  0 Multiplicity = 1

                         Standard orientation:
 ---------------------------------------------------------------------
 Center     Atomic      Atomic             Coordinates (Angstroms)
 Number     Number       Type             X           Y           Z
 ---------------------------------------------------------------------
      1          7           0       -0.740143   -0.981121    0.000000
      2          1           0       -0.008629    2.110086    0.000000
      3          6           0        1.118131    0.297361    0.000000
      4          1           0        2.116365    0.699025    0.000000
      5          6           0        0.635194   -0.982498    0.000000
      6          1           0        1.195375   -1.903069    0.000000
      7          1           0       -2.100472    0.658887    0.000000
      8          6           0       -1.090264    0.281478    0.000000
      9          7           0        0.000000    1.103554    0.000000
 ---------------------------------------------------------------------

 SCF Done:  E(RB3LYP) =  -226.295331514     A.U. after    1 cycles

 The electronic state is 1-A'.
 Alpha  occ. eigenvalues --  -14.37944 -14.29769 -10.22832 -10.20501 -10.18602
 Alpha  occ. eigenvalues --   -1.02338  -0.87797  -0.75076  -0.62341  -0.59733
 Alpha  occ. eigenvalues --   -0.56967  -0.44930  -0.44572  -0.43883  -0.41479
 Alpha  occ. eigenvalues --   -0.29117  -0.27560  -0.23995
 Alpha virt. eigenvalues --    0.01294   0.02045   0.05235   0.07886   0.08370
 Alpha virt. eigenvalues --    0.10219   0.12249   0.15350   0.17269   0.19517
 Alpha virt. eigenvalues --    0.20700   0.24410   0.25087   0.25108   0.28219

 Mulliken atomic charges:
              1
     1  N   -0.139988
     2  H    0.240097
     3  C   -0.108453
     4  H    0.123792
     5  C   -0.124342
     6  H    0.122125
     7  H    0.119128
     8  C   -0.066585
     9  N   -0.165774
 Sum of Mulliken atomic charges =   0.00000

 Dipole moment (field-independent basis, Debye):
    X=              1.1628    Y=              3.6380    Z=              0.0000  Tot=              3.8193
 Quadrupole moment (field-independent basis, Debye-Ang):
   XX=            -26.9469   YY=            -25.9590   ZZ=            -32.1011
   XY=             -3.3844   XZ=              0.0000   YZ=              0.0000

  Exact polarizability:  52.647  -0.555  50.677   0.000   0.000  28.392
 Approx polarizability:  80.564   1.964  83.192   0.000   0.000  40.612

                     1                      2                      3
                    A"                     A"                     A"
 Frequencies --   520.0049               643.1167               680.7760
 Red. masses --     1.6222                 2.1958                 2.8537
 Frc consts  --     0.2584                 0.5351                 0.7792
 IR Inten    --    88.9989                13.7341                 4.1575

                     4                      5                      6
                    A"                     A"                     A"
 Frequencies --   729.6316               805.4755               863.7637
 Red. masses --     1.2233                 1.3579                 1.3233
 Frc consts  --     0.3837                 0.5191                 0.5817
 IR Inten    --    37.7241                40.1460                 5.6300

                     7                      8                      9
                    A'                     A'                     A'
 Frequencies --   912.1272               948.8313              1074.0529
 Red. masses --     5.4918                 4.4448                 1.6587
 Frc consts  --     2.6920                 2.3576                 1.1274
 IR Inten    --     7.6725                 2.1813                41.5978

                    10                     11                     12
                    A'                     A'                     A'
 Frequencies --  1095.7937              1148.0935              1157.7052
 Red. masses --     1.5919                 1.4844                 4.9732
 Frc consts  --     1.1262                 1.1528                 3.9272
 IR Inten    --    20.6199                 3.2964                 4.9324

                    13                     14                     15
                    A'                     A'                     A'
 Frequencies --  1288.1944              1364.4527              1427.0604
 Red. masses --     1.4015                 3.2710                 2.7075
 Frc consts  --     1.3703                 3.5879                 3.2487
 IR Inten    --     0.4865                 6.6747                15.6959

                    16                     17                     18
                    A'                     A'                     A'
 Frequencies --  1499.3104              1558.6819              3248.2265
 Red. masses --     3.0032                 3.1392                 1.0935
 Frc consts  --     3.9776                 4.4934                 6.7975
 IR Inten    --    18.5052                12.1971                 5.0154

                    19                     20                     21
                    A'                     A'                     A'
 Frequencies --  3250.5547              3279.4048              3651.1853
 Red. masses --     1.0956                 1.1038                 1.0814
 Frc consts  --     6.8205                 6.9943                 8.4937
 IR Inten    --     0.5770                 0.8926                57.2369

 - Thermochemistry -
 -------------------
 Temperature   298.150 Kelvin.  Pressure   1.00000 Atm.
 Atom     1 has atomic number  7 and mass  14.00307

 Molecular mass:    68.03745 amu.
 Principal axes and moments of inertia in atomic units:
                           1         2         3
     Eigenvalues --   184.84657 191.25530 376.10187
           X            0.47025   0.88253   0.00000
           Y            0.88253  -0.47025   0.00000
           Z            0.00000   0.00000   1.00000
 This molecule is an asymmetric top.
 Rotational symmetry number  1.
 Rotational temperatures (Kelvin)      0.46857     0.45287     0.23029
 Rotational constants (GHZ):           9.76346     9.43629     4.79854
 Zero-point vibrational energy     186297.1 (Joules/Mol)
                                   44.52608 (Kcal/Mol)
 Warning -- explicit consideration of   1 degrees of freedom as
           vibrations may cause significant error
 Vibrational temperatures:    748.17   925.30   979.48  1049.78  1158.90
          (Kelvin)           1242.76  1312.35  1365.15  1545.32  1576.60
                             1651.85  1665.68  1853.42  1963.14  2053.22
                             2157.17  2242.59  4673.47  4676.82  4718.33
                             5253.23

 Zero-point correction=                           0.070957 (Hartree/Particle)
 Thermal correction to Energy=                    0.074723
 Thermal correction to Enthalpy=                  0.075667
 Thermal correction to Gibbs Free Energy=         0.044690
 Sum of electronic and zero-point Energies=           -226.224375
 Sum of electronic and thermal Energies=              -226.220608
 Sum of electronic and thermal Enthalpies=            -226.219664
 Sum of electronic and thermal Free Energies=         -226.250641

                     E (Thermal)             CV                S
                      KCal/Mol        Cal/Mol-Kelvin    Cal/Mol-Kelvin
 Total                   46.889             13.431             65.197
 Electronic               0.000              0.000              0.000
 Translational            0.889              2.981             38.570
 Rotational               0.889              2.981             24.101
 Vibrational             45.112              7.469              2.525
 Vibration     1          0.875              1.206              0.610

 Optimization completed.
    -- Stationary point found.
 Normal termination of Gaussian 09 at Tue Feb  1 08:56:42 2011.
