 Gaussian 98, Revision A.6,
 Gaussian 98:  IBM-RS6000-G98RevA.6 19-Oct-1998

 -----------------------
 #B3LYP/6-31G** opt freq
 -----------------------

 --------------------------------
 1H imidazole C3H4N2 casno=288324
 --------------------------------
 Symbolic Z-matrix:
 Charge =  0 Multiplicity = 1

 SCF Done:  E(RB+HF-LYP) =  -226.158413707     A.U. after   15 cycles
 SCF Done:  E(RB+HF-LYP) =  -226.213698772     A.U. after   13 cycles
 SCF Done:  E(RB+HF-LYP) =  -226.222704210     A.U. after   13 cycles
 SCF Done:  E(RB+HF-LYP) =  -226.222995956     A.U. after   10 cycles
 SCF Done:  E(RB+HF-LYP) =  -226.223086666     A.U. after   10 cycles
 SCF Done:  E(RB+HF-LYP) =  -226.223092847     A.U. after    8 cycles
 Optimization completed.
    -- Stationary point found.
 Normal termination of Gaussian 98.

 ----------------------------------------------------
 #N Geom=AllCheck Guess=TCheck RB3LYP/6-31G(d,p) Freq
 ----------------------------------------------------

 1H imidazole C3H4N2 casno=288324
 --------------------------------
 Redundant internal coordinates taken from checkpointfile:
 /wrk/rdj3/Gau-38278.chk
 Charge =  0 Multiplicity = 1

                         Standard orientation:
 ---------------------------------------------------------------------
 Center     Atomic     Atomic              Coordinates (Angstroms)
 Number     Number      Type              X           Y           Z
 ---------------------------------------------------------------------
    1          7             0       -0.742757   -0.986784    0.000000
    2          1             0       -0.009834    2.114435    0.000000
    3          6             0        1.120491    0.299944    0.000000
    4          1             0        2.120255    0.705247    0.000000
    5          6             0        0.635304   -0.983475    0.000000
    6          1             0        1.199979   -1.905292    0.000000
    7          1             0       -2.102591    0.662222    0.000000
    8          6             0       -1.090546    0.281368    0.000000
    9          7             0        0.000000    1.106264    0.000000
 ---------------------------------------------------------------------

 SCF Done:  E(RB+HF-LYP) =  -226.223092847     A.U. after    1 cycles

  The electronic state is 1-A'.
 Alpha  occ. eigenvalues --  -14.39185 -14.30717 -10.23591 -10.21264 -10.19315
 Alpha  occ. eigenvalues --   -1.00826  -0.86487  -0.73799  -0.61200  -0.58484
 Alpha  occ. eigenvalues --   -0.55795  -0.43596  -0.43378  -0.42463  -0.40146
 Alpha  occ. eigenvalues --   -0.27701  -0.26250  -0.22559
 Alpha virt. eigenvalues --    0.03192   0.07315   0.07432   0.13412   0.15106
 Alpha virt. eigenvalues --    0.17086   0.22122   0.24003   0.30804   0.34884
 Alpha virt. eigenvalues --    0.45644   0.51780   0.54082   0.55700   0.58723

  Exact polarizability:  48.128  -1.315  46.365   0.004   0.003  17.723
 Approx polarizability:  75.893   1.553  79.211   0.000   0.000  26.475

                     1                      2                      3
                    A"                     A"                     A"
 Frequencies --   515.0599               645.0884               682.8032
 Red. masses --     1.5401                 2.3848                 3.0131
 Frc consts  --     0.2407                 0.5847                 0.8277
 IR Inten    --    95.6740                13.2645                 2.7688
 Raman Activ --     0.0000                 0.0000                 0.0000

                     4                      5                      6
                    A"                     A"                     A"
 Frequencies --   725.3812               806.0608               862.9294
 Red. masses --     1.2206                 1.3331                 1.3124
 Frc consts  --     0.3784                 0.5103                 0.5758
 IR Inten    --    22.9676                29.5092                 4.4797
 Raman Activ --     0.0000                 0.0000                 0.0000

                     7                      8                      9
                    A'                     A'                     A'
 Frequencies --   903.8815               942.5111              1081.0573
 Red. masses --     5.3775                 4.6193                 1.5916
 Frc consts  --     2.5886                 2.4177                 1.0959
 IR Inten    --     8.5403                 1.5712                34.2859
 Raman Activ --     0.0000                 0.0000                 0.0000

                    10                     11                     12
                    A'                     A'                     A'
 Frequencies --  1101.7841              1153.6468              1171.3873
 Red. masses --     1.5228                 1.3485                 6.7045
 Frc consts  --     1.0891                 1.0574                 5.4202
 IR Inten    --    17.7509                 2.6444                 5.1755
 Raman Activ --     0.0000                 0.0000                 0.0000

                    13                     14                     15
                    A'                     A'                     A'
 Frequencies --  1290.8802              1380.9976              1446.8684
 Red. masses --     1.3727                 3.3361                 3.0168
 Frc consts  --     1.3478                 3.7487                 3.7210
 IR Inten    --     0.4972                 8.1662                15.6272
 Raman Activ --     0.0000                 0.0000                 0.0000

                    16                     17                     18
                    A'                     A'                     A'
 Frequencies --  1517.7054              1573.1940              3256.9500
 Red. masses --     3.1907                 3.3188                 1.0921
 Frc consts  --     4.3303                 4.8394                 6.8257
 IR Inten    --    18.8628                12.4466                 7.6677
 Raman Activ --     0.0000                 0.0000                 0.0000

                    19                     20                     21
                    A'                     A'                     A'
 Frequencies --  3261.5310              3291.5423              3669.9359
 Red. masses --     1.0964                 1.1035                 1.0815
 Frc consts  --     6.8719                 7.0444                 8.5825
 IR Inten    --     1.0748                 2.0585                48.4916
 Raman Activ --     0.0000                 0.0000                 0.0000

 - Thermochemistry -
 -------------------
 Temperature   298.150 Kelvin.  Pressure   1.00000 Atm.
 Atom  1 has atomic number  7 and mass  14.00307

 Molecular mass:    68.03745 amu.
 Principal axes and moments of inertia in atomic units:
                           1         2         3
     EIGENVALUES --   185.18969 192.63962 377.82930
           X            0.47162   0.88180   0.00000
           Y            0.88180  -0.47162   0.00000
           Z            0.00000   0.00000   1.00000
 THIS MOLECULE IS AN ASYMMETRIC TOP.
 ROTATIONAL SYMMETRY NUMBER  1.
 ROTATIONAL TEMPERATURES (KELVIN)      0.46770     0.44961     0.22924
 ROTATIONAL CONSTANTS (GHZ)            9.74537     9.36848     4.77660
 Zero-point vibrational energy     187103.1 (Joules/Mol)
                                   44.71872 (Kcal/Mol)
 WARNING-- EXPLICIT CONSIDERATION OF   1 DEGREES OF FREEDOM AS
           VIBRATIONS MAY CAUSE SIGNIFICANT ERROR
 VIBRATIONAL TEMPERATURES:    741.05   928.13   982.40  1043.66  1159.74
          (KELVIN)           1241.56  1300.48  1356.06  1555.39  1585.21
                             1659.83  1685.36  1857.28  1986.94  2081.71
                             2183.63  2263.46  4686.00  4692.59  4735.77
                             5280.19

 Zero-point correction=                           0.071264 (Hartree/Particle)
 Thermal correction to Energy=                    0.075031
 Thermal correction to Enthalpy=                  0.075976
 Thermal correction to Gibbs Free Energy=         0.044989
 Sum of electronic and zero-point Energies=           -226.151829
 Sum of electronic and thermal Energies=              -226.148061
 Sum of electronic and thermal Enthalpies=            -226.147117
 Sum of electronic and thermal Free Energies=         -226.178104

                     E (Thermal)             CV                S
                      KCAL/MOL        CAL/MOL-KELVIN    CAL/MOL-KELVIN
 TOTAL                   47.083             13.413             65.217
 ELECTRONIC               0.000              0.000              0.000
 TRANSLATIONAL            0.889              2.981             38.570
 ROTATIONAL               0.889              2.981             24.115
 VIBRATIONAL             45.305              7.452              2.532
 VIBRATION  1             0.870              1.217              0.622
                       Q            LOG10(Q)             LN(Q)
 TOTAL BOT       0.202591D-20        -20.693379        -47.648267
 TOTAL V=0       0.121753D+13         12.085479         27.827843
 VIB (BOT)       0.220984D-32        -32.655640        -75.192390
 VIB (BOT)  1    0.314808D+00         -0.501955         -1.155793
 VIB (V=0)       0.132806D+01          0.123218          0.283719
 VIB (V=0)  1    0.109085D+01          0.037765          0.086957
 ELECTRONIC      0.100000D+01          0.000000          0.000000
 TRANSLATIONAL   0.220588D+08          7.343582         16.909224
 ROTATIONAL      0.415603D+05          4.618678         10.634900
 ***** Axes restored to original set *****
 -------------------------------------------------------------------
 Center     Atomic                   Forces (Hartrees/Bohr)
 Number     Number              X              Y              Z
 -------------------------------------------------------------------
    1          7           0.000266470    0.000000000    0.000154173
    2          1          -0.000023657    0.000000000    0.000016203
    3          6           0.000229187    0.000000000   -0.000197439
    4          1          -0.000009108    0.000000000    0.000029847
    5          6          -0.000361241    0.000000000    0.000002142
    6          1           0.000054455    0.000000000    0.000004803
    7          1           0.000009292    0.000000000    0.000001512
    8          6          -0.000186649    0.000000000   -0.000256259
    9          7           0.000021251    0.000000000    0.000245018
 -------------------------------------------------------------------
 Cartesian Forces:  Max     0.000361241 RMS     0.000133701

 GradGradGradGradGradGradGradGradGradGradGradGradGradGradGradGradGradGrad
 Berny optimization.
 Internal  Forces:  Max     0.000229022 RMS     0.000067848
 Search for a local minimum.
 Step number   1 out of a maximum of  48
 All quantities printed in internal units (Hartrees-Bohrs-Radians)
 Second derivative matrix not updated -- analytic derivatives used.
     Eigenvalues ---    0.00505   0.01075   0.01977   0.02730   0.05934
     Eigenvalues ---    0.06180   0.09796   0.10467   0.11065   0.11922
     Eigenvalues ---    0.23051   0.24505   0.34685   0.37261   0.37558
     Eigenvalues ---    0.37991   0.41094   0.44760   0.47473   0.48277
     Eigenvalues ---    0.581251000.000001000.000001000.000001000.00000
     Eigenvalues --- 1000.000001000.000001000.000001000.000001000.00000
     Eigenvalues --- 1000.000001000.000001000.000001000.000001000.00000
     Eigenvalues --- 1000.000001000.000001000.00000
 Angle between quadratic step and forces=  25.41 degrees.
 Linear search not attempted -- first point.
 Iteration  1 RMS(Cart)=  0.00016774 RMS(Int)=  0.00000003
 Iteration  2 RMS(Cart)=  0.00000004 RMS(Int)=  0.00000000
 Variable       Old X    -DE/DX   Delta X   Delta X   Delta X     New X
                                 (Linear)    (Quad)   (Total)
    R1        2.60416   0.00023   0.00000   0.00078   0.00078   2.60494
    R2        2.48495   0.00006   0.00000   0.00014   0.00014   2.48509
    R3        1.90526  -0.00002   0.00000  -0.00004  -0.00004   1.90522
    R4        2.03863  -0.00001   0.00000  -0.00002  -0.00002   2.03861
    R5        2.59283   0.00005   0.00000   0.00010   0.00010   2.59293
    R6        2.60868  -0.00016   0.00000  -0.00046  -0.00046   2.60822
    R7        2.04283  -0.00003   0.00000  -0.00013  -0.00013   2.04271
    R8        2.04343   0.00001   0.00000   0.00004   0.00004   2.04346
    R9        2.58399  -0.00021   0.00000  -0.00058  -0.00058   2.58340
    A1        1.83606  -0.00010   0.00000  -0.00031  -0.00031   1.83575
    A2        2.31738  -0.00005   0.00000  -0.00042  -0.00042   2.31697
    A3        2.13267   0.00001   0.00000   0.00027   0.00027   2.13294
    A4        1.83313   0.00004   0.00000   0.00014   0.00014   1.83327
    A5        1.93463  -0.00008   0.00000  -0.00026  -0.00026   1.93437
    A6        2.11800   0.00000   0.00000  -0.00035  -0.00035   2.11766
    A7        2.23055   0.00008   0.00000   0.00061   0.00061   2.23116
    A8        2.19839  -0.00004   0.00000  -0.00022  -0.00022   2.19817
    A9        1.95072   0.00007   0.00000   0.00023   0.00023   1.95095
   A10        2.13408  -0.00003   0.00000  -0.00001  -0.00001   2.13407
   A11        2.20432  -0.00006   0.00000  -0.00026  -0.00026   2.20406
   A12        2.20863  -0.00002   0.00000   0.00006   0.00006   2.20869
   A13        1.87024   0.00008   0.00000   0.00020   0.00020   1.87043
    D1        0.00000   0.00000   0.00000   0.00000   0.00000   0.00000
    D2        3.14159   0.00000   0.00000   0.00000   0.00000   3.14159
    D3        3.14159   0.00000   0.00000   0.00000   0.00000   3.14159
    D4        0.00000   0.00000   0.00000   0.00000   0.00000   0.00000
    D5        3.14159   0.00000   0.00000   0.00000   0.00000   3.14159
    D6        0.00000   0.00000   0.00000   0.00000   0.00000   0.00000
    D7        0.00000   0.00000   0.00000   0.00000   0.00000   0.00000
    D8        3.14159   0.00000   0.00000   0.00000   0.00000   3.14159
    D9        0.00000   0.00000   0.00000   0.00000   0.00000   0.00000
   D10        3.14159   0.00000   0.00000   0.00000   0.00000   3.14159
   D11        3.14159   0.00000   0.00000   0.00000   0.00000   3.14159
   D12        0.00000   0.00000   0.00000   0.00000   0.00000   0.00000
   D13        3.14159   0.00000   0.00000   0.00000   0.00000   3.14159
   D14        0.00000   0.00000   0.00000   0.00000   0.00000   0.00000
   D15        0.00000   0.00000   0.00000   0.00000   0.00000   0.00000
   D16        3.14159   0.00000   0.00000   0.00000   0.00000   3.14159
         Item               Value     Threshold  Converged?
 Maximum Force            0.000229     0.000450     YES
 RMS     Force            0.000068     0.000300     YES
 Maximum Displacement     0.000460     0.001800     YES
 RMS     Displacement     0.000168     0.001200     YES
 Predicted change in Energy=-2.891647D-07
 Optimization completed.
    -- Stationary point found.
                         ----------------------------
                         !   Optimized Parameters   !
                         ! (Angstroms and Degrees)  !
 ------------------------                            -------------------------
 ! Name  Definition              Value          Derivative Info.             !
 -----------------------------------------------------------------------------
 ! R1    R(1,5)                  1.3781         -DE/DX =    0.0002           !
 ! R2    R(1,8)                  1.315          -DE/DX =    0.0001           !
 ! R3    R(2,9)                  1.0082         -DE/DX =    0.               !
 ! R4    R(3,4)                  1.0788         -DE/DX =    0.               !
 ! R5    R(3,5)                  1.3721         -DE/DX =    0.0001           !
 ! R6    R(3,9)                  1.3805         -DE/DX =   -0.0002           !
 ! R7    R(5,6)                  1.081          -DE/DX =    0.               !
 ! R8    R(7,8)                  1.0813         -DE/DX =    0.               !
 ! R9    R(8,9)                  1.3674         -DE/DX =   -0.0002           !
 ! A1    A(5,1,8)              105.1987         -DE/DX =   -0.0001           !
 ! A2    A(4,3,5)              132.7763         -DE/DX =    0.               !
 ! A3    A(4,3,9)              122.1931         -DE/DX =    0.               !
 ! A4    A(5,3,9)              105.0305         -DE/DX =    0.               !
 ! A5    A(1,5,3)              110.8463         -DE/DX =   -0.0001           !
 ! A6    A(1,5,6)              121.3527         -DE/DX =    0.               !
 ! A7    A(3,5,6)              127.801          -DE/DX =    0.0001           !
 ! A8    A(1,8,7)              125.9586         -DE/DX =    0.               !
 ! A9    A(1,8,9)              111.7679         -DE/DX =    0.0001           !
 ! A10   A(7,8,9)              122.2735         -DE/DX =    0.               !
 ! A11   A(2,9,3)              126.2982         -DE/DX =   -0.0001           !
 ! A12   A(2,9,8)              126.5452         -DE/DX =    0.               !
 ! A13   A(3,9,8)              107.1566         -DE/DX =    0.0001           !
 ! D1    D(8,1,5,3)              0.             -DE/DX =    0.               !
 ! D2    D(8,1,5,6)            180.             -DE/DX =    0.               !
 ! D3    D(5,1,8,7)            180.             -DE/DX =    0.               !
 ! D4    D(5,1,8,9)              0.             -DE/DX =    0.               !
 ! D5    D(4,3,5,1)            180.             -DE/DX =    0.               !
 ! D6    D(4,3,5,6)              0.             -DE/DX =    0.               !
 ! D7    D(9,3,5,1)              0.             -DE/DX =    0.               !
 ! D8    D(9,3,5,6)            180.             -DE/DX =    0.               !
 ! D9    D(4,3,9,2)              0.             -DE/DX =    0.               !
 ! D10   D(4,3,9,8)            180.             -DE/DX =    0.               !
 ! D11   D(5,3,9,2)            180.             -DE/DX =    0.               !
 ! D12   D(5,3,9,8)              0.             -DE/DX =    0.               !
 ! D13   D(1,8,9,2)            180.             -DE/DX =    0.               !
 ! D14   D(1,8,9,3)              0.             -DE/DX =    0.               !
 ! D15   D(7,8,9,2)              0.             -DE/DX =    0.               !
 ! D16   D(7,8,9,3)            180.             -DE/DX =    0.               !
 -----------------------------------------------------------------------------
 GradGradGradGradGradGradGradGradGradGradGradGradGradGradGradGradGradGrad

 1\1\GINC-QUANTUM\Freq\RB3LYP\6-31G(d,p)\C3H4N2\RDJ3\19-Jun-2000\0\\#N
 GEOM=ALLCHECK GUESS=TCHECK RB3LYP/6-31G(D,P) FREQ\\1H imidazole C3H4N2
  casno=288324\\0,1\N,0.4985960119,0.,1.1299699917\H,0.4909588252,0.,-2
 .0566703013\C,-1.0227799941,0.,-0.5471635532\H,-1.904016024,0.,-1.1694
 342226\C,-0.8425229923,0.,0.8130118857\H,-1.6022351716,0.,1.5820648678
 \H,2.1981405825,0.,-0.166145645\C,1.1259657484,0.,-0.025700252\N,0.251
 8575903,0.,-1.0772133035\\Version=IBM-RS6000-G98RevA.6\State=1-A'\HF=-
 226.2230928\RMSD=9.724e-09\RMSF=1.337e-04\Dipole=-0.11007,0.,-1.452420
 1\DipoleDeriv=-0.3885831,-0.000045,-0.0137308,-0.0003016,-0.3038908,-0
 .0001933,-0.0150808,0.0002079,-0.588146,0.1831261,-0.0000004,-0.003673
 5,-0.0000351,0.3304248,-0.0000439,-0.0033129,0.0000366,0.1848668,0.011
 2843,0.0000257,-0.2357033,0.0001521,-0.1142227,0.0000742,-0.0265867,0.
 0003539,0.1888263,0.0148582,-0.0001581,-0.0397272,-0.0000881,0.1650622
 ,-0.0000452,-0.0674915,-0.0001175,0.0323971,0.1942665,-0.0003951,-0.05
 73158,0.0000455,-0.0957605,0.0000029,-0.0770458,-0.0000018,0.1324492,-
 0.012688,0.0002459,0.0671795,0.0000897,0.1284272,0.0000955,0.0779795,-
 0.0002148,0.0217982,-0.0304146,-0.0000551,0.0302666,-0.0001084,0.13799
 54,-0.0000486,0.0360734,0.0000024,0.0601225,0.1389241,0.0000721,0.1014
 676,0.0003395,0.0148491,0.0001821,0.0050088,-0.0002622,0.5473228,-0.11
 07731,0.00031,0.1512367,-0.0000935,-0.2628847,-0.0000239,0.0704558,-0.
 0000045,-0.5796364\Polar=48.6190915,0.0033794,17.7229458,-0.7876539,0.
 0033609,45.8738525\PG=CS [SG(C3H4N2)]\NImag=0\\0.49503222,0.00000020,0
 .10369638,-0.06070965,0.00004057,0.57676581,-0.00308736,0.00000183,-0.
 00821589,0.08160819,-0.00000089,0.00702102,0.00000139,-0.00000012,0.01
 111518,-0.00311527,0.00000701,-0.00378470,-0.09759535,0.00000066,0.454
 72341,-0.03334385,0.00000225,-0.01335791,0.00758139,0.00000005,-0.0033
 8725,0.74374499,-0.00000188,0.01642498,-0.00000572,-0.00000016,-0.0076
 6875,-0.00000070,-0.00000075,0.10663353,-0.08782802,0.00004439,-0.0198
 3581,0.02778698,0.00000461,-0.00090506,0.16071967,-0.00000394,0.742488
 53,0.00157657,-0.00002034,0.00112167,0.00019891,-0.00000266,0.00004790
 ,-0.25685153,-0.00000014,-0.13995404,0.27161844,0.00000074,0.00724921,
 0.00000376,0.00000012,-0.00116416,0.00000029,0.00000040,-0.02006479,0.
 00000338,-0.00000055,0.01821100,-0.00398922,-0.00001477,-0.00550711,-0
 .00095181,-0.00000199,0.00013694,-0.15022119,-0.00000022,-0.16564423,0
 .15418495,-0.00000037,0.15855937,-0.25739520,-0.00005803,-0.03798857,-
 0.00863919,-0.00000439,-0.00118953,-0.10066513,0.00000654,-0.01912157,
 0.00491928,-0.00000486,-0.02217485,0.66108808,0.00000003,-0.06950543,-
 0.00002007,-0.00000116,0.00233563,-0.00000416,-0.00000016,-0.06347257,
 -0.00002064,0.00001106,-0.00205567,0.00000800,0.00002752,0.13124875,-0
 .04851262,-0.00000398,-0.11183134,0.00355143,0.00000117,0.00041553,-0.
 03665778,0.00000510,-0.39302636,0.00106283,-0.00000241,0.00248078,-0.1
 5390950,-0.00000050,0.79832849,-0.02040986,0.00003363,0.02079610,0.000
 86521,0.00000298,-0.00000462,0.00871692,-0.00000210,-0.00527133,-0.000
 21969,0.00000206,0.00066498,-0.19415661,-0.00001669,0.14671741,0.21089
 657,-0.00000015,-0.00541336,0.00000097,0.00000033,0.00204071,0.0000007
 0,-0.00000113,-0.00070764,-0.00000013,-0.00000162,-0.00207323,-0.00000
 116,-0.00000023,-0.02848740,0.00000258,0.00000089,0.02303844,-0.006127
 59,-0.00002812,0.01239894,0.00125409,-0.00000287,0.00023773,0.02076105
 ,0.00000153,-0.00801482,-0.00045075,-0.00000165,-0.00012808,0.14891237
 ,0.00001395,-0.21769797,-0.15927349,-0.00000080,0.21748525,-0.00901409
 ,-0.00000947,0.00473713,-0.00055772,-0.00000032,-0.00037398,0.00114113
 ,-0.00000098,-0.00324128,-0.00031695,0.00000002,0.00039038,0.00116635,
 0.00000470,0.00246522,-0.00030719,-0.00000012,-0.00020175,0.36912053,0
 .00000023,-0.00563381,0.00000602,0.00000023,-0.00125954,0.00000044,0.0
 0000023,0.00253526,0.00000655,-0.00000217,0.00194022,-0.00000159,-0.00
 000849,0.00704340,-0.00000198,0.00000452,0.00118568,-0.00000376,-0.000
 00050,0.02048402,0.02958904,0.00000297,0.00056680,0.00055167,-0.000000
 29,0.00030688,-0.00095001,0.00000003,-0.00585362,-0.00103500,0.0000000
 8,0.00105035,0.00291075,-0.00000162,-0.00442249,0.00138569,0.00000016,
 0.00069360,-0.03909991,0.00000016,0.06251756,-0.16795917,0.00001904,0.
 11930990,0.01828230,0.00000027,0.01441112,-0.09186515,-0.00000084,0.00
 530788,-0.00292796,0.00000123,0.00415104,-0.08949110,-0.00000947,0.015
 20376,-0.00592722,0.00000070,-0.00354802,-0.34767600,0.00000225,0.0364
 3952,0.89403901,-0.00000087,-0.07548858,-0.00003020,-0.00000133,-0.008
 97658,-0.00000371,-0.00000192,0.01670252,-0.00003145,0.00001215,0.0026
 2947,0.00000882,0.00004186,0.00991112,0.00000683,-0.00002323,0.0053616
 6,0.00001909,0.00000565,-0.02386300,-0.00000200,-0.00001316,0.13146301
 ,0.14419276,-0.00004176,-0.34280652,-0.01616617,-0.00000206,-0.0101320
 0,-0.04669206,0.00000430,-0.01110384,0.00401796,-0.00000310,-0.0054101
 0,0.07559759,0.00002036,-0.00164794,-0.00205291,-0.00000031,0.00037141
 ,0.03136506,-0.00000546,-0.06222722,-0.08802490,0.00002998,0.64484148,
 -0.00539926,0.00003089,-0.02569279,-0.09625174,0.00000508,0.09120697,-
 0.27845877,0.00000030,0.06160171,-0.01799707,0.00000085,0.01794571,-0.
 01682647,-0.00001583,0.07007924,0.00054188,0.00000132,-0.00132591,-0.0
 1355605,0.00000371,-0.02979174,-0.20647472,-0.00001913,-0.10223733,0.6
 3442219,0.00000257,0.02164958,0.00000329,0.00000025,-0.00344351,-0.000
 00054,0.00000103,-0.05038254,-0.00000276,0.00000429,-0.00467205,0.0000
 0330,0.00000009,0.01298217,-0.00000680,-0.00000206,0.00505514,0.000002
 63,0.00000103,-0.00243223,0.00000051,0.,-0.05773961,-0.00000196,-0.000
 00719,0.07898305,0.03650056,-0.00000630,-0.10596606,0.08978505,-0.0000
 0061,-0.44099873,0.06978546,-0.00000038,-0.13810480,-0.01899552,0.0000
 0003,0.01446209,0.00696332,0.00000467,-0.07259871,-0.00296183,-0.00000
 201,-0.00534606,0.00395913,-0.00000038,0.00736815,-0.10325030,0.000002
 65,-0.21188528,-0.08178586,0.00000234,0.95306939\\-0.00026647,0.,-0.00
 015417,0.00002366,0.,-0.00001620,-0.00022919,0.,0.00019744,0.00000911,
 0.,-0.00002985,0.00036124,0.,-0.00000214,-0.00005446,0.,-0.00000480,-0
 .00000929,0.,-0.00000151,0.00018665,0.,0.00025626,-0.00002125,0.,-0.00
 024502\\\@

 IF IT HAPPENS, IT MUST BE POSSIBLE.

 -- THE UNNAMED LAW FROM PAUL DICKSON'S
    "THE OFFICIAL RULES"
 Job cpu time:  0 days  0 hours 16 minutes 56.6 seconds.
 File lengths (MBytes):  RWF=   15 Int=    0 D2E=    0 Chk=    3 Scr=    1
 Normal termination of Gaussian 98.
