 Gaussian 98, Revision A.4,
 Gaussian 98:  IBM-RS6000-G98RevA.4 11-Sep-1998

 -----------------------
 #B3LYP/6-311G* opt freq
 -----------------------

 --------------------------------
 1H imidazole C3H4N2 casno=288324
 --------------------------------
 Symbolic Z-matrix:
 Charge =  0 Multiplicity = 1

 SCF Done:  E(RB+HF-LYP) =  -226.206017996     A.U. after   14 cycles
 SCF Done:  E(RB+HF-LYP) =  -226.259180148     A.U. after   13 cycles
 SCF Done:  E(RB+HF-LYP) =  -226.267462843     A.U. after   12 cycles
 SCF Done:  E(RB+HF-LYP) =  -226.267752832     A.U. after   10 cycles
 SCF Done:  E(RB+HF-LYP) =  -226.267849943     A.U. after   10 cycles
 SCF Done:  E(RB+HF-LYP) =  -226.267856078     A.U. after    8 cycles
 Optimization completed.
    -- Stationary point found.
 Normal termination of Gaussian 98.

 ---------------------------------------------------
 #N Geom=AllCheck Guess=TCheck RB3LYP/6-311G(d) Freq
 ---------------------------------------------------

 1H imidazole C3H4N2 casno=288324
 --------------------------------
 Redundant internal coordinates taken from checkpointfile:
 /wrk/rdj3/Gau-12166.chk
 Charge =  0 Multiplicity = 1

                         Standard orientation:
 ---------------------------------------------------------------------
 Center     Atomic     Atomic              Coordinates (Angstroms)
 Number     Number      Type              X           Y           Z
 ---------------------------------------------------------------------
    1          7             0       -0.741492   -0.983623    0.000000
    2          1             0       -0.007118    2.112104    0.000000
    3          6             0        1.119262    0.298567    0.000000
    4          1             0        2.118320    0.703805    0.000000
    5          6             0        0.634699   -0.982788    0.000000
    6          1             0        1.195291   -1.905948    0.000000
    7          1             0       -2.101474    0.659585    0.000000
    8          6             0       -1.089722    0.280885    0.000000
    9          7             0        0.000000    1.105119    0.000000
 ---------------------------------------------------------------------

 SCF Done:  E(RB+HF-LYP) =  -226.267856078     A.U. after    1 cycles

  The electronic state is 1-A'.
 Alpha  occ. eigenvalues --  -14.36999 -14.28591 -10.22146 -10.19832 -10.17920
 Alpha  occ. eigenvalues --   -1.01689  -0.87252  -0.74529  -0.62021  -0.59237
 Alpha  occ. eigenvalues --   -0.56553  -0.44465  -0.44177  -0.43256  -0.40978
 Alpha  occ. eigenvalues --   -0.28470  -0.26971  -0.23338
 Alpha virt. eigenvalues --    0.02348   0.02884   0.06427   0.07954   0.08570
 Alpha virt. eigenvalues --    0.10504   0.19563   0.21446   0.23715   0.28818
 Alpha virt. eigenvalues --    0.32294   0.36388   0.37932   0.40009   0.40113

  Exact polarizability:  49.640  -1.153  47.473  -0.001  -0.007  22.172
 Approx polarizability:  77.376   1.580  79.864   0.000   0.000  32.734

                     1                      2                      3
                    A"                     A"                     A"
 Frequencies --   518.5744               647.9426               684.5659
 Red. masses --     1.5569                 2.2444                 2.8159
 Frc consts  --     0.2467                 0.5552                 0.7775
 IR Inten    --   102.5874                12.1983                 5.9879
 Raman Activ --     0.0000                 0.0000                 0.0000

                     4                      5                      6
                    A"                     A"                     A"
 Frequencies --   715.5148               802.0154               854.8179
 Red. masses --     1.2267                 1.3828                 1.3328
 Frc consts  --     0.3700                 0.5240                 0.5738
 IR Inten    --    35.8168                38.8784                 6.0293
 Raman Activ --     0.0000                 0.0000                 0.0000

                     7                      8                      9
                    A'                     A'                     A'
 Frequencies --   910.6857               948.5789              1075.5043
 Red. masses --     5.4707                 4.4370                 1.6269
 Frc consts  --     2.6732                 2.3523                 1.1088
 IR Inten    --     9.1256                 2.1063                37.9556
 Raman Activ --     0.0000                 0.0000                 0.0000

                    10                     11                     12
                    A'                     A'                     A'
 Frequencies --  1096.7795              1148.6334              1163.9174
 Red. masses --     1.5629                 1.4014                 6.2550
 Frc consts  --     1.1077                 1.0894                 4.9926
 IR Inten    --    21.6846                 2.4747                 4.6004
 Raman Activ --     0.0000                 0.0000                 0.0000

                    13                     14                     15
                    A'                     A'                     A'
 Frequencies --  1285.1151              1367.6951              1442.1007
 Red. masses --     1.3962                 3.3424                 2.8373
 Frc consts  --     1.3585                 3.6838                 3.4765
 IR Inten    --     0.4091                 6.7681                15.0055
 Raman Activ --     0.0000                 0.0000                 0.0000

                    16                     17                     18
                    A'                     A'                     A'
 Frequencies --  1506.0607              1565.5030              3237.8855
 Red. masses --     3.0849                 3.0786                 1.0923
 Frc consts  --     4.1226                 4.4455                 6.7468
 IR Inten    --    17.0986                13.7652                 9.6989
 Raman Activ --     0.0000                 0.0000                 0.0000

                    19                     20                     21
                    A'                     A'                     A'
 Frequencies --  3243.5151              3269.7308              3659.9476
 Red. masses --     1.0967                 1.1041                 1.0813
 Frc consts  --     6.7977                 6.9548                 8.5337
 IR Inten    --     2.8629                 4.1380                37.6779
 Raman Activ --     0.0000                 0.0000                 0.0000

 - Thermochemistry -
 -------------------
 Temperature   298.150 Kelvin.  Pressure   1.00000 Atm.
 Atom  1 has atomic number  7 and mass  14.00307

 Molecular mass:    68.03745 amu.
 Principal axes and moments of inertia in atomic units:
                           1         2         3
     EIGENVALUES --   184.84724 191.98555 376.83279
           X            0.47212   0.88154   0.00000
           Y            0.88154  -0.47212   0.00000
           Z            0.00000   0.00000   1.00000
 THIS MOLECULE IS AN ASYMMETRIC TOP.
 ROTATIONAL SYMMETRY NUMBER  1.
 ROTATIONAL TEMPERATURES (KELVIN)      0.46857     0.45115     0.22985
 ROTATIONAL CONSTANTS (GHZ)            9.76342     9.40040     4.78924
 Zero-point vibrational energy     186289.0 (Joules/Mol)
                                   44.52414 (Kcal/Mol)
 WARNING-- EXPLICIT CONSIDERATION OF   1 DEGREES OF FREEDOM AS
           VIBRATIONS MAY CAUSE SIGNIFICANT ERROR
 VIBRATIONAL TEMPERATURES:    746.11   932.24   984.93  1029.46  1153.91
          (KELVIN)           1229.89  1310.27  1364.79  1547.40  1578.01
                             1652.62  1674.61  1848.98  1967.80  2074.85
                             2166.87  2252.40  4658.57  4666.67  4704.39
                             5265.82

 Zero-point correction=                           0.070954 (Hartree/Particle)
 Thermal correction to Energy=                    0.074724
 Thermal correction to Enthalpy=                  0.075669
 Thermal correction to Gibbs Free Energy=         0.044683
 Sum of electronic and zero-point Energies=           -226.196902
 Sum of electronic and thermal Energies=              -226.193132
 Sum of electronic and thermal Enthalpies=            -226.192187
 Sum of electronic and thermal Free Energies=         -226.223173

                     E (Thermal)             CV                S
                      KCAL/MOL        CAL/MOL-KELVIN    CAL/MOL-KELVIN
 TOTAL                   46.890             13.449             65.215
 ELECTRONIC               0.000              0.000              0.000
 TRANSLATIONAL            0.889              2.981             38.570
 ROTATIONAL               0.889              2.981             24.107
 VIBRATIONAL             45.113              7.488              2.538
 VIBRATION  1             0.874              1.209              0.613
                       Q            LOG10(Q)             LN(Q)
 TOTAL BOT       0.280260D-20        -20.552440        -47.323741
 TOTAL V=0       0.121280D+13         12.083789         27.823954
 VIB (BOT)       0.306912D-32        -32.512987        -74.863918
 VIB (BOT)  1    0.311673D+00         -0.506300         -1.165799
 VIB (V=0)       0.132814D+01          0.123243          0.283776
 VIB (V=0)  1    0.108919D+01          0.037102          0.085431
 ELECTRONIC      0.100000D+01          0.000000          0.000000
 TRANSLATIONAL   0.220588D+08          7.343582         16.909224
 ROTATIONAL      0.413966D+05          4.616964         10.630954
 ***** Axes restored to original set *****
 -------------------------------------------------------------------
 Center     Atomic                   Forces (Hartrees/Bohr)
 Number     Number              X              Y              Z
 -------------------------------------------------------------------
    1          7           0.000310148    0.000000000    0.000181870
    2          1          -0.000019632    0.000000000    0.000021872
    3          6           0.000252372    0.000000000   -0.000238559
    4          1          -0.000005910    0.000000000    0.000046986
    5          6          -0.000408578    0.000000000   -0.000004906
    6          1           0.000065109    0.000000000   -0.000005474
    7          1          -0.000002906    0.000000000    0.000008808
    8          6          -0.000181834    0.000000000   -0.000279308
    9          7          -0.000008770    0.000000000    0.000268712
 -------------------------------------------------------------------
 Cartesian Forces:  Max     0.000408578 RMS     0.000150019

 GradGradGradGradGradGradGradGradGradGradGradGradGradGradGradGradGradGrad
 Berny optimization.
 Internal  Forces:  Max     0.000264922 RMS     0.000075600
 Search for a local minimum.
 Step number   1 out of a maximum of  48
 All quantities printed in internal units (Hartrees-Bohrs-Radians)
 Second derivative matrix not updated -- analytic derivatives used.
     Eigenvalues ---    0.00508   0.01051   0.01946   0.02651   0.05973
     Eigenvalues ---    0.06222   0.09865   0.10502   0.10986   0.11754
     Eigenvalues ---    0.22977   0.24351   0.34195   0.36847   0.37093
     Eigenvalues ---    0.37455   0.40493   0.44216   0.46770   0.47957
     Eigenvalues ---    0.576481000.000001000.000001000.000001000.00000
     Eigenvalues --- 1000.000001000.000001000.000001000.000001000.00000
     Eigenvalues --- 1000.000001000.000001000.000001000.000001000.00000
     Eigenvalues --- 1000.000001000.000001000.00000
 Angle between quadratic step and forces=  25.84 degrees.
 Linear search not attempted -- first point.
 Iteration  1 RMS(Cart)=  0.00018084 RMS(Int)=  0.00000004
 Iteration  2 RMS(Cart)=  0.00000005 RMS(Int)=  0.00000000
 Variable       Old X    -DE/DX   Delta X   Delta X   Delta X     New X
                                 (Linear)    (Quad)   (Total)
    R1        2.60062   0.00026   0.00000   0.00090   0.00090   2.60153
    R2        2.47853   0.00006   0.00000   0.00015   0.00015   2.47868
    R3        1.90297  -0.00003   0.00000  -0.00005  -0.00005   1.90293
    R4        2.03735  -0.00002   0.00000  -0.00005  -0.00005   2.03729
    R5        2.58877   0.00006   0.00000   0.00010   0.00010   2.58886
    R6        2.60705  -0.00019   0.00000  -0.00055  -0.00055   2.60650
    R7        2.04098  -0.00005   0.00000  -0.00017  -0.00017   2.04081
    R8        2.04148   0.00000   0.00000   0.00001   0.00001   2.04148
    R9        2.58199  -0.00021   0.00000  -0.00061  -0.00061   2.58138
    A1        1.83892  -0.00012   0.00000  -0.00038  -0.00038   1.83853
    A2        2.31768  -0.00006   0.00000  -0.00056  -0.00056   2.31712
    A3        2.13183   0.00003   0.00000   0.00041   0.00041   2.13224
    A4        1.83368   0.00003   0.00000   0.00015   0.00015   1.83383
    A5        1.93295  -0.00008   0.00000  -0.00026  -0.00026   1.93268
    A6        2.11593   0.00000   0.00000  -0.00038  -0.00038   2.11555
    A7        2.23431   0.00008   0.00000   0.00064   0.00064   2.23496
    A8        2.19768  -0.00005   0.00000  -0.00028  -0.00028   2.19740
    A9        1.94964   0.00008   0.00000   0.00026   0.00026   1.94989
   A10        2.13587  -0.00003   0.00000   0.00002   0.00002   2.13589
   A11        2.20229  -0.00006   0.00000  -0.00022  -0.00022   2.20207
   A12        2.21129  -0.00003   0.00000  -0.00001  -0.00001   2.21128
   A13        1.86960   0.00009   0.00000   0.00023   0.00023   1.86984
    D1        0.00000   0.00000   0.00000   0.00000   0.00000   0.00000
    D2        3.14159   0.00000   0.00000   0.00000   0.00000   3.14159
    D3        3.14159   0.00000   0.00000   0.00000   0.00000   3.14159
    D4        0.00000   0.00000   0.00000   0.00000   0.00000   0.00000
    D5        3.14159   0.00000   0.00000   0.00000   0.00000   3.14159
    D6        0.00000   0.00000   0.00000   0.00000   0.00000   0.00000
    D7        0.00000   0.00000   0.00000   0.00000   0.00000   0.00000
    D8        3.14159   0.00000   0.00000   0.00000   0.00000   3.14159
    D9        0.00000   0.00000   0.00000   0.00000   0.00000   0.00000
   D10        3.14159   0.00000   0.00000   0.00000   0.00000   3.14159
   D11        3.14159   0.00000   0.00000   0.00000   0.00000   3.14159
   D12        0.00000   0.00000   0.00000   0.00000   0.00000   0.00000
   D13        3.14159   0.00000   0.00000   0.00000   0.00000   3.14159
   D14        0.00000   0.00000   0.00000   0.00000   0.00000   0.00000
   D15        0.00000   0.00000   0.00000   0.00000   0.00000   0.00000
   D16        3.14159   0.00000   0.00000   0.00000   0.00000   3.14159
         Item               Value     Threshold  Converged?
 Maximum Force            0.000265     0.000450     YES
 RMS     Force            0.000076     0.000300     YES
 Maximum Displacement     0.000495     0.001800     YES
 RMS     Displacement     0.000181     0.001200     YES
 Predicted change in Energy=-3.685611D-07
 Optimization completed.
    -- Stationary point found.
                         ----------------------------
                         !   Optimized Parameters   !
                         ! (Angstroms and Degrees)  !
 ------------------------                            -------------------------
 ! Name  Definition              Value          Derivative Info.             !
 -----------------------------------------------------------------------------
 ! R1    R(1,5)                  1.3762         -DE/DX =    0.0003           !
 ! R2    R(1,8)                  1.3116         -DE/DX =    0.0001           !
 ! R3    R(2,9)                  1.007          -DE/DX =    0.               !
 ! R4    R(3,4)                  1.0781         -DE/DX =    0.               !
 ! R5    R(3,5)                  1.3699         -DE/DX =    0.0001           !
 ! R6    R(3,9)                  1.3796         -DE/DX =   -0.0002           !
 ! R7    R(5,6)                  1.08           -DE/DX =    0.               !
 ! R8    R(7,8)                  1.0803         -DE/DX =    0.               !
 ! R9    R(8,9)                  1.3663         -DE/DX =   -0.0002           !
 ! A1    A(5,1,8)              105.3621         -DE/DX =   -0.0001           !
 ! A2    A(4,3,5)              132.7933         -DE/DX =   -0.0001           !
 ! A3    A(4,3,9)              122.1446         -DE/DX =    0.               !
 ! A4    A(5,3,9)              105.0621         -DE/DX =    0.               !
 ! A5    A(1,5,3)              110.7496         -DE/DX =   -0.0001           !
 ! A6    A(1,5,6)              121.2336         -DE/DX =    0.               !
 ! A7    A(3,5,6)              128.0168         -DE/DX =    0.0001           !
 ! A8    A(1,8,7)              125.9178         -DE/DX =    0.               !
 ! A9    A(1,8,9)              111.7059         -DE/DX =    0.0001           !
 ! A10   A(7,8,9)              122.3763         -DE/DX =    0.               !
 ! A11   A(2,9,3)              126.1819         -DE/DX =   -0.0001           !
 ! A12   A(2,9,8)              126.6977         -DE/DX =    0.               !
 ! A13   A(3,9,8)              107.1203         -DE/DX =    0.0001           !
 ! D1    D(8,1,5,3)              0.             -DE/DX =    0.               !
 ! D2    D(8,1,5,6)            180.             -DE/DX =    0.               !
 ! D3    D(5,1,8,7)            180.             -DE/DX =    0.               !
 ! D4    D(5,1,8,9)              0.             -DE/DX =    0.               !
 ! D5    D(4,3,5,1)            180.             -DE/DX =    0.               !
 ! D6    D(4,3,5,6)              0.             -DE/DX =    0.               !
 ! D7    D(9,3,5,1)              0.             -DE/DX =    0.               !
 ! D8    D(9,3,5,6)            180.             -DE/DX =    0.               !
 ! D9    D(4,3,9,2)              0.             -DE/DX =    0.               !
 ! D10   D(4,3,9,8)            180.             -DE/DX =    0.               !
 ! D11   D(5,3,9,2)            180.             -DE/DX =    0.               !
 ! D12   D(5,3,9,8)              0.             -DE/DX =    0.               !
 ! D13   D(1,8,9,2)            180.             -DE/DX =    0.               !
 ! D14   D(1,8,9,3)              0.             -DE/DX =    0.               !
 ! D15   D(7,8,9,2)              0.             -DE/DX =    0.               !
 ! D16   D(7,8,9,3)            180.             -DE/DX =    0.               !
 -----------------------------------------------------------------------------
 GradGradGradGradGradGradGradGradGradGradGradGradGradGradGradGradGradGrad

 1\1\GINC-WOLFRAM\Freq\RB3LYP\6-311G(d)\C3H4N2\RDJ3\09-Mar-2000\0\\#N G
 EOM=ALLCHECK GUESS=TCHECK RB3LYP/6-311G(D) FREQ\\1H imidazole C3H4N2 c
 asno=288324\\0,1\N,0.4974740219,0.,1.1268740213\H,0.4888959028,0.,-2.0
 547541757\C,-1.0216005264,0.,-0.5460959831\H,-1.9018281263,0.,-1.16861
 97486\C,-0.8422174371,0.,0.812024887\H,-1.598677388,0.,1.5829061814\H,
 2.1965413374,0.,-0.1626430804\C,1.125067133,0.,-0.0248085685\N,0.25217
 93006,0.,-1.0759613341\\Version=IBM-RS6000-G98RevA.4\State=1-A'\HF=-22
 6.2678561\RMSD=2.424e-09\RMSF=1.500e-04\Dipole=-0.1013534,0.,-1.478304
 6\DipoleDeriv=-0.383055,-0.0001167,-0.0369278,0.0000181,-0.3015961,0.0
 000789,-0.0211596,-0.0000714,-0.5994536,0.1867154,-0.0000357,0.0000375
 ,-0.0000412,0.3441461,0.0001155,0.0009568,0.0000509,0.1594755,0.004384
 1,-0.0003,-0.2337803,0.0000213,-0.1327629,-0.0000532,-0.030225,-0.0001
 59,0.1852987,0.0037665,0.0002313,-0.0556092,-0.0000553,0.1886777,-0.00
 00372,-0.0797164,0.0001789,0.0322268,0.1991219,0.0002348,-0.0334151,-0
 .0000127,-0.1384879,-0.0000372,-0.0856459,-0.0000423,0.1471096,-0.0138
 443,-0.0000556,0.0736912,0.0000394,0.1571725,0.0000761,0.096256,0.0000
 352,0.0183407,-0.0443764,0.0000931,0.038764,-0.0000026,0.160643,0.0001
 708,0.0325333,0.0000396,0.0669732,0.1353497,-0.0001209,0.0794054,-0.00
 00156,0.0030399,-0.0002398,0.0184702,0.0001354,0.5473192,-0.0880611,0.
 0000698,0.1678343,0.0000488,-0.2808322,-0.000074,0.0685306,-0.0001674,
 -0.5572896\Polar=50.0394533,0.0010468,22.171801,-0.551081,-0.0067809,4
 7.0738014\PG=CS [SG(C3H4N2)]\NImag=0\\0.48420259,-0.00000085,0.1049396
 6,-0.05560492,-0.00000231,0.57354683,-0.00321443,-0.00000011,-0.008052
 95,0.08242782,-0.00000290,0.00710331,0.00000011,-0.00000083,0.01130020
 ,-0.00293278,-0.00000030,-0.00384500,-0.09581403,0.00000157,0.45290210
 ,-0.03336469,-0.00000262,-0.01457180,0.00754648,-0.00000610,-0.0021547
 2,0.73539293,0.00000085,0.01715608,0.00000121,0.00000021,-0.00790177,0
 .00000073,0.00000476,0.10666756,-0.08845868,-0.00000190,-0.02058491,0.
 02835407,-0.00000246,-0.00061713,0.16248415,0.00000193,0.73133236,0.00
 154950,0.00000198,0.00108526,0.00002505,0.00000474,0.00017524,-0.25324
 708,-0.00000354,-0.13782709,0.26761410,-0.00000120,0.00706067,0.000003
 59,-0.00000061,-0.00107497,0.00000201,-0.00000131,-0.01939511,0.000000
 69,0.00000108,0.01769485,-0.00403445,0.00000149,-0.00541891,-0.0009654
 1,0.00000381,0.00011628,-0.14829086,-0.00000298,-0.16454970,0.15203475
 ,0.00000105,0.15718029,-0.24882701,0.00000372,-0.03723506,-0.00847399,
 0.00000571,-0.00137601,-0.10208318,-0.00000548,-0.01780374,0.00510236,
 -0.00000010,-0.02173146,0.65197145,0.00000067,-0.07042630,-0.00000021,
 0.00000046,0.00237776,-0.00000186,0.00000220,-0.06471994,0.00000158,-0
 .00000231,-0.00189346,-0.00000161,-0.00000073,0.13123625,-0.04597632,-
 0.00000050,-0.11277334,0.00350043,-0.00000314,0.00024038,-0.03436409,0
 .00000382,-0.38224757,0.00095855,-0.00000234,0.00261233,-0.15820783,0.
 00000008,0.78730255,-0.02011953,-0.00000133,0.02049320,0.00077213,-0.0
 0000220,0.00000483,0.00892947,0.00000347,-0.00525696,-0.00030181,-0.00
 000062,0.00068274,-0.19065680,-0.00000036,0.14487382,0.20718673,-0.000
 00017,-0.00538797,-0.00000249,-0.00000007,0.00207904,0.00000016,-0.000
 00213,-0.00057668,-0.00000233,0.00000164,-0.00213179,0.00000109,0.0000
 0200,-0.02767740,0.00000140,0.,0.02244487,-0.00610725,0.00000107,0.012
 11440,0.00120522,0.00000163,0.00020720,0.02023793,-0.00000259,-0.00792
 839,-0.00050110,0.00000027,-0.00027141,0.14733693,0.00000026,-0.216293
 30,-0.15739584,0.00000006,0.21616814,-0.00904969,0.00000091,0.00460807
 ,-0.00066503,0.00000160,-0.00053378,0.00101385,-0.00000041,-0.00315176
 ,-0.00032516,0.,0.00034811,0.00106233,-0.00000012,0.00262219,-0.000288
 36,0.00000064,-0.00017139,0.36515772,-0.00000060,-0.00546014,-0.000005
 09,0.,-0.00121095,-0.00000198,-0.00000399,0.00259971,-0.00000370,0.000
 00234,0.00182999,0.00000187,0.00000453,0.00705230,0.00000211,-0.000000
 95,0.00106934,0.00000062,0.00000251,0.02023434,0.02932298,0.00000026,0
 .00023539,0.00054403,0.00000080,0.00026204,-0.00085506,-0.00000063,-0.
 00577859,-0.00101402,0.00000045,0.00099231,0.00296327,0.00000007,-0.00
 418301,0.00132314,-0.00000003,0.00065972,-0.03808172,0.00000060,0.0616
 5496,-0.16683790,-0.00000147,0.11549834,0.01927678,-0.00000162,0.01350
 951,-0.09342751,0.00000044,0.00437051,-0.00312269,0.00000073,0.0040149
 6,-0.09119199,0.00000076,0.01588080,-0.00605068,-0.00000153,-0.0033371
 0,-0.34417674,-0.00000332,0.03529495,0.88993214,0.00000084,-0.07678692
 ,0.00000683,0.,-0.00911368,0.00000187,0.00000385,0.01678119,0.00000486
 ,-0.00000183,0.00265932,-0.00000148,-0.00000614,0.01058165,-0.00000363
 ,0.00000093,0.00535219,-0.00000081,-0.00000363,-0.02378926,-0.00000039
 ,0.00000471,0.13265797,0.13784989,0.00000296,-0.33522910,-0.01635375,0
 .00000097,-0.01065300,-0.04725127,-0.00000193,-0.01040316,0.00386710,-
 0.00000405,-0.00534329,0.07797650,-0.00000015,-0.00108603,-0.00180558,
 0.00000345,0.00056431,0.03045575,0.00000704,-0.06119915,-0.08919613,-0
 .00000984,0.62971361,-0.00433883,-0.00000022,-0.02622015,-0.09769481,0
 .00000161,0.08912174,-0.27076027,-0.00000029,0.05728949,-0.01729427,0.
 00000202,0.01794162,-0.01690317,-0.00000058,0.07071248,0.00052885,-0.0
 0000038,-0.00126738,-0.01272892,-0.00000051,-0.02949757,-0.20440144,0.
 00000128,-0.09554251,0.62359288,0.00000335,0.02180162,-0.00000164,0.00
 000096,-0.00355893,-0.00000221,0.00000534,-0.05061102,0.00000132,-0.00
 000411,-0.00474950,-0.00000324,-0.00000351,0.01346914,0.00000222,0.000
 00106,0.00482840,-0.00000049,-0.00000151,-0.00232533,-0.00000113,0.000
 00131,-0.05834246,0.00000155,-0.00000291,0.07948809,0.03594154,-0.0000
 0077,-0.10804534,0.08758239,-0.00000329,-0.43861287,0.06476572,0.00000
 045,-0.13922291,-0.01877868,-0.00000167,0.01468212,0.00807742,0.000001
 84,-0.07357202,-0.00291934,-0.00000132,-0.00522066,0.00390452,-0.00000
 145,0.00735633,-0.09603585,0.00000259,-0.20636419,-0.08253772,0.000003
 62,0.94899953\\-0.00031015,0.,-0.00018187,0.00001963,0.,-0.00002187,-0
 .00025237,0.,0.00023856,0.00000591,0.,-0.00004699,0.00040858,0.,0.0000
 0491,-0.00006511,0.,0.00000547,0.00000291,0.,-0.00000881,0.00018183,0.
 ,0.00027931,0.00000877,0.,-0.00026871\\\@

 WHEN ALL ELSE FAILS, TRY THE BOSS'S SUGGESTION.
 Job cpu time:  0 days  0 hours 25 minutes  4.2 seconds.
 File lengths (MBytes):  RWF=   20 Int=    0 D2E=    0 Chk=    3 Scr=    1
 Normal termination of Gaussian 98.
