 Gaussian 98, Revision A.7,
 Gaussian 98:  SGI64-G98RevA.7 11-Apr-1999

 ---------------------
 #B3LYP/6-31G opt freq
 ---------------------

 --------------------------------
 1H imidazole C3H4N2 casno=288324
 --------------------------------
 Symbolic Z-matrix:
 Charge =  0 Multiplicity = 1

 SCF Done:  E(RB+HF-LYP) =  -226.067579344     A.U. after   14 cycles
 SCF Done:  E(RB+HF-LYP) =  -226.129191047     A.U. after   14 cycles
 SCF Done:  E(RB+HF-LYP) =  -226.141089992     A.U. after   13 cycles
 SCF Done:  E(RB+HF-LYP) =  -226.141485952     A.U. after   11 cycles
 SCF Done:  E(RB+HF-LYP) =  -226.141626862     A.U. after    9 cycles
 SCF Done:  E(RB+HF-LYP) =  -226.141638662     A.U. after    9 cycles
 Optimization completed.
    -- Stationary point found.
 Normal termination of Gaussian 98.

 -----------------------------------------------
 #N Geom=AllCheck Guess=TCheck RB3LYP/6-31G Freq
 -----------------------------------------------

 1H imidazole C3H4N2 casno=288324
 --------------------------------
 Redundant internal coordinates taken from checkpointfile:
 /tmp/Gau-207963.chk
 Charge =  0 Multiplicity = 1

                         Standard orientation:
 ---------------------------------------------------------------------
 Center     Atomic     Atomic              Coordinates (Angstroms)
 Number     Number      Type              X           Y           Z
 ---------------------------------------------------------------------
    1          7             0       -0.747795   -0.991289    0.000000
    2          1             0       -0.003544    2.120929    0.000000
    3          6             0        1.128811    0.298939    0.000000
    4          1             0        2.128128    0.699345    0.000000
    5          6             0        0.648989   -0.991640    0.000000
    6          1             0        1.204601   -1.914106    0.000000
    7          1             0       -2.117856    0.660410    0.000000
    8          6             0       -1.107260    0.288668    0.000000
    9          7             0        0.000000    1.113808    0.000000
 ---------------------------------------------------------------------

 SCF Done:  E(RB+HF-LYP) =  -226.141638662     A.U. after    1 cycles

  The electronic state is 1-A'.
 Alpha  occ. eigenvalues --  -14.39216 -14.31535 -10.24072 -10.21851 -10.19635
 Alpha  occ. eigenvalues --   -1.01962  -0.87519  -0.74866  -0.61953  -0.59224
 Alpha  occ. eigenvalues --   -0.56549  -0.44480  -0.44253  -0.42771  -0.41237
 Alpha  occ. eigenvalues --   -0.27906  -0.25368  -0.23375
 Alpha virt. eigenvalues --    0.02389   0.06786   0.07055   0.13052   0.14680
 Alpha virt. eigenvalues --    0.16781   0.21171   0.23408   0.30541   0.34939
 Alpha virt. eigenvalues --    0.44075   0.53918   0.54578   0.58741   0.59397

  Exact polarizability:  47.125  -1.378  45.568   0.002  -0.001  15.801
 Approx polarizability:  73.531   1.713  78.332   0.000   0.000  20.232

                     1                      2                      3
                    A"                     A"                     A"
 Frequencies --   634.7495               659.2900               683.0416
 Red. masses --     2.8815                 1.3009                 2.7607
 Frc consts  --     0.6840                 0.3332                 0.7589
 IR Inten    --    58.6518               125.0789                 0.1490
 Raman Activ --     0.0000                 0.0000                 0.0000

                     4                      5                      6
                    A"                     A"                     A"
 Frequencies --   759.9446               819.8563               894.8192
 Red. masses --     1.2441                 1.3926                 1.3600
 Frc consts  --     0.4233                 0.5515                 0.6416
 IR Inten    --    24.6318                26.9387                 4.6886
 Raman Activ --     0.0000                 0.0000                 0.0000

                     7                      8                      9
                    A'                     A'                     A'
 Frequencies --   920.5850               956.6619              1071.9240
 Red. masses --     5.8424                 4.6168                 1.8169
 Frc consts  --     2.9172                 2.4895                 1.2300
 IR Inten    --     8.9175                 2.7973                35.8020
 Raman Activ --     0.0000                 0.0000                 0.0000

                    10                     11                     12
                    A'                     A'                     A'
 Frequencies --  1111.6948              1136.8474              1170.3474
 Red. masses --     1.7236                 6.5446                 1.3665
 Frc consts  --     1.2550                 4.9835                 1.1028
 IR Inten    --    15.0026                 9.6546                 1.0951
 Raman Activ --     0.0000                 0.0000                 0.0000

                    13                     14                     15
                    A'                     A'                     A'
 Frequencies --  1291.6379              1361.2715              1427.7097
 Red. masses --     1.5064                 2.8860                 2.3857
 Frc consts  --     1.4807                 3.1509                 2.8651
 IR Inten    --     1.1793                10.3422                15.3995
 Raman Activ --     0.0000                 0.0000                 0.0000

                    16                     17                     18
                    A'                     A'                     A'
 Frequencies --  1493.5643              1562.4168              3304.6667
 Red. masses --     2.8137                 2.7012                 1.0915
 Frc consts  --     3.6981                 3.8851                 7.0232
 IR Inten    --    11.9645                17.8841                 3.2350
 Raman Activ --     0.0000                 0.0000                 0.0000

                    19                     20                     21
                    A'                     A'                     A'
 Frequencies --  3314.9826              3330.2196              3683.4169
 Red. masses --     1.0970                 1.1084                 1.0818
 Frc consts  --     7.1028                 7.2424                 8.6475
 IR Inten    --     1.9338                 2.0098                42.8921
 Raman Activ --     0.0000                 0.0000                 0.0000

 - Thermochemistry -
 -------------------
 Temperature   298.150 Kelvin.  Pressure   1.00000 Atm.
 Atom  1 has atomic number  7 and mass  14.00307

 Molecular mass:    68.03745 amu.
 Principal axes and moments of inertia in atomic units:
                           1         2         3
     EIGENVALUES --   189.51622 194.51938 384.03559
           X            0.49518   0.86879   0.00000
           Y            0.86879  -0.49518   0.00000
           Z            0.00000   0.00000   1.00000
 THIS MOLECULE IS AN ASYMMETRIC TOP.
 ROTATIONAL SYMMETRY NUMBER  1.
 ROTATIONAL TEMPERATURES (KELVIN)      0.45702     0.44527     0.22553
 ROTATIONAL CONSTANTS (GHZ)            9.52289     9.27795     4.69941
 Zero-point vibrational energy     188948.1 (Joules/Mol)
                                   45.15967 (Kcal/Mol)
 VIBRATIONAL TEMPERATURES:    913.26   948.57   982.74  1093.38  1179.58
          (KELVIN)           1287.44  1324.51  1376.42  1542.25  1599.47
                             1635.66  1683.86  1858.37  1958.55  2054.14
                             2148.89  2247.96  4754.65  4769.49  4791.42
                             5299.58

 Zero-point correction=                           0.071967 (Hartree/Particle)
 Thermal correction to Energy=                    0.075631
 Thermal correction to Enthalpy=                  0.076575
 Thermal correction to Gibbs Free Energy=         0.045717
 Sum of electronic and zero-point Energies=           -226.069672
 Sum of electronic and thermal Energies=              -226.066008
 Sum of electronic and thermal Enthalpies=            -226.065064
 Sum of electronic and thermal Free Energies=         -226.095921

                     E (Thermal)             CV                S
                      KCAL/MOL        CAL/MOL-KELVIN    CAL/MOL-KELVIN
 TOTAL                   47.459             12.992             64.945
 ELECTRONIC               0.000              0.000              0.000
 TRANSLATIONAL            0.889              2.981             38.570
 ROTATIONAL               0.889              2.981             24.163
 VIBRATIONAL             45.682              7.031              2.212
                       Q            LOG10(Q)             LN(Q)
 TOTAL BOT       0.936812D-21        -21.028348        -48.419560
 TOTAL V=0       0.118503D+13         12.073730         27.800790
 VIB (BOT)       0.997080D-33        -33.001270        -75.988232
 VIB (V=0)       0.126127D+01          0.100808          0.232118
 ELECTRONIC      0.100000D+01          0.000000          0.000000
 TRANSLATIONAL   0.220588D+08          7.343582         16.909224
 ROTATIONAL      0.425931D+05          4.629340         10.659449
 ***** Axes restored to original set *****
 -------------------------------------------------------------------
 Center     Atomic                   Forces (Hartrees/Bohr)
 Number     Number              X              Y              Z
 -------------------------------------------------------------------
    1          7           0.000436916    0.000000000    0.000043722
    2          1          -0.000014410    0.000000000   -0.000018691
    3          6           0.000344402    0.000000000   -0.000260082
    4          1          -0.000057485    0.000000000   -0.000018494
    5          6          -0.000395478    0.000000000   -0.000053213
    6          1           0.000018998    0.000000000    0.000080387
    7          1           0.000097247    0.000000000   -0.000010047
    8          6          -0.000472724    0.000000000   -0.000262826
    9          7           0.000042534    0.000000000    0.000499243
 -------------------------------------------------------------------
 Cartesian Forces:  Max     0.000499243 RMS     0.000202071

 GradGradGradGradGradGradGradGradGradGradGradGradGradGradGradGradGradGrad
 Berny optimization.
 Internal  Forces:  Max     0.000372718 RMS     0.000105151
 Search for a local minimum.
 Step number   1 out of a maximum of  48
 All quantities printed in internal units (Hartrees-Bohrs-Radians)
 Second derivative matrix not updated -- analytic derivatives used.
     Eigenvalues ---    0.00768   0.01208   0.02057   0.02781   0.06215
     Eigenvalues ---    0.06403   0.10134   0.10918   0.11327   0.11889
     Eigenvalues ---    0.23321   0.24466   0.32757   0.38080   0.38607
     Eigenvalues ---    0.38634   0.40042   0.43902   0.47938   0.48796
     Eigenvalues ---    0.561381000.000001000.000001000.000001000.00000
     Eigenvalues --- 1000.000001000.000001000.000001000.000001000.00000
     Eigenvalues --- 1000.000001000.000001000.000001000.000001000.00000
     Eigenvalues --- 1000.000001000.000001000.00000
 Angle between quadratic step and forces=  23.47 degrees.
 Linear search not attempted -- first point.
 Iteration  1 RMS(Cart)=  0.00031409 RMS(Int)=  0.00000009
 Iteration  2 RMS(Cart)=  0.00000009 RMS(Int)=  0.00000001
 Variable       Old X    -DE/DX   Delta X   Delta X   Delta X     New X
                                 (Linear)    (Quad)   (Total)
    R1        2.63954   0.00030   0.00000   0.00116   0.00116   2.64070
    R2        2.51234  -0.00009   0.00000  -0.00011  -0.00011   2.51223
    R3        1.90320   0.00001   0.00000   0.00004   0.00004   1.90324
    R4        2.03439   0.00006   0.00000   0.00015   0.00015   2.03454
    R5        2.60194   0.00008   0.00000   0.00019   0.00019   2.60213
    R6        2.63088  -0.00026   0.00000  -0.00067  -0.00067   2.63021
    R7        2.03499   0.00004   0.00000   0.00008   0.00008   2.03506
    R8        2.03485   0.00010   0.00000   0.00028   0.00028   2.03513
    R9        2.60952  -0.00037   0.00000  -0.00110  -0.00110   2.60842
    A1        1.84484  -0.00012   0.00000  -0.00043  -0.00043   1.84441
    A2        2.30784  -0.00001   0.00000  -0.00026  -0.00026   2.30758
    A3        2.13524   0.00002   0.00000   0.00020   0.00020   2.13544
    A4        1.84011  -0.00001   0.00000   0.00006   0.00006   1.84016
    A5        1.92650  -0.00012   0.00000  -0.00040  -0.00040   1.92610
    A6        2.11317  -0.00001   0.00000  -0.00057  -0.00057   2.11260
    A7        2.24352   0.00013   0.00000   0.00097   0.00097   2.24449
    A8        2.19707  -0.00006   0.00000  -0.00033  -0.00033   2.19673
    A9        1.93744   0.00011   0.00000   0.00037   0.00037   1.93781
   A10        2.14868  -0.00005   0.00000  -0.00004  -0.00004   2.14864
   A11        2.19958  -0.00009   0.00000  -0.00035  -0.00035   2.19923
   A12        2.20771  -0.00005   0.00000  -0.00005  -0.00005   2.20766
   A13        1.87590   0.00014   0.00000   0.00039   0.00039   1.87630
    D1        0.00000   0.00000   0.00000   0.00000   0.00000   0.00000
    D2        3.14159   0.00000   0.00000   0.00000   0.00000   3.14159
    D3        3.14159   0.00000   0.00000   0.00000   0.00000   3.14159
    D4        0.00000   0.00000   0.00000   0.00000   0.00000   0.00000
    D5        3.14159   0.00000   0.00000   0.00000   0.00000   3.14159
    D6        0.00000   0.00000   0.00000   0.00000   0.00000   0.00000
    D7        0.00000   0.00000   0.00000   0.00000   0.00000   0.00000
    D8        3.14159   0.00000   0.00000   0.00000   0.00000   3.14159
    D9        0.00000   0.00000   0.00000   0.00000   0.00000   0.00000
   D10        3.14159   0.00000   0.00000   0.00000   0.00000   3.14159
   D11        3.14159   0.00000   0.00000   0.00000   0.00000   3.14159
   D12        0.00000   0.00000   0.00000   0.00000   0.00000   0.00000
   D13        3.14159   0.00000   0.00000   0.00000   0.00000   3.14159
   D14        0.00000   0.00000   0.00000   0.00000   0.00000   0.00000
   D15        0.00000   0.00000   0.00000   0.00000   0.00000   0.00000
   D16        3.14159   0.00000   0.00000   0.00000   0.00000   3.14159
         Item               Value     Threshold  Converged?
 Maximum Force            0.000373     0.000450     YES
 RMS     Force            0.000105     0.000300     YES
 Maximum Displacement     0.000768     0.001800     YES
 RMS     Displacement     0.000314     0.001200     YES
 Predicted change in Energy=-6.907116D-07
 Optimization completed.
    -- Stationary point found.
                         ----------------------------
                         !   Optimized Parameters   !
                         ! (Angstroms and Degrees)  !
 ------------------------                            -------------------------
 ! Name  Definition              Value          Derivative Info.             !
 -----------------------------------------------------------------------------
 ! R1    R(1,5)                  1.3968         -DE/DX =    0.0003           !
 ! R2    R(1,8)                  1.3295         -DE/DX =   -0.0001           !
 ! R3    R(2,9)                  1.0071         -DE/DX =    0.               !
 ! R4    R(3,4)                  1.0766         -DE/DX =    0.0001           !
 ! R5    R(3,5)                  1.3769         -DE/DX =    0.0001           !
 ! R6    R(3,9)                  1.3922         -DE/DX =   -0.0003           !
 ! R7    R(5,6)                  1.0769         -DE/DX =    0.               !
 ! R8    R(7,8)                  1.0768         -DE/DX =    0.0001           !
 ! R9    R(8,9)                  1.3809         -DE/DX =   -0.0004           !
 ! A1    A(5,1,8)              105.7013         -DE/DX =   -0.0001           !
 ! A2    A(4,3,5)              132.2295         -DE/DX =    0.               !
 ! A3    A(4,3,9)              122.3401         -DE/DX =    0.               !
 ! A4    A(5,3,9)              105.4303         -DE/DX =    0.               !
 ! A5    A(1,5,3)              110.3801         -DE/DX =   -0.0001           !
 ! A6    A(1,5,6)              121.0755         -DE/DX =    0.               !
 ! A7    A(3,5,6)              128.5444         -DE/DX =    0.0001           !
 ! A8    A(1,8,7)              125.8827         -DE/DX =   -0.0001           !
 ! A9    A(1,8,9)              111.0069         -DE/DX =    0.0001           !
 ! A10   A(7,8,9)              123.1104         -DE/DX =   -0.0001           !
 ! A11   A(2,9,3)              126.0265         -DE/DX =   -0.0001           !
 ! A12   A(2,9,8)              126.4922         -DE/DX =   -0.0001           !
 ! A13   A(3,9,8)              107.4813         -DE/DX =    0.0001           !
 ! D1    D(8,1,5,3)              0.             -DE/DX =    0.               !
 ! D2    D(8,1,5,6)            180.             -DE/DX =    0.               !
 ! D3    D(5,1,8,7)            180.             -DE/DX =    0.               !
 ! D4    D(5,1,8,9)              0.             -DE/DX =    0.               !
 ! D5    D(4,3,5,1)            180.             -DE/DX =    0.               !
 ! D6    D(4,3,5,6)              0.             -DE/DX =    0.               !
 ! D7    D(9,3,5,1)              0.             -DE/DX =    0.               !
 ! D8    D(9,3,5,6)            180.             -DE/DX =    0.               !
 ! D9    D(4,3,9,2)              0.             -DE/DX =    0.               !
 ! D10   D(4,3,9,8)            180.             -DE/DX =    0.               !
 ! D11   D(5,3,9,2)            180.             -DE/DX =    0.               !
 ! D12   D(5,3,9,8)              0.             -DE/DX =    0.               !
 ! D13   D(1,8,9,2)            180.             -DE/DX =    0.               !
 ! D14   D(1,8,9,3)              0.             -DE/DX =    0.               !
 ! D15   D(7,8,9,2)              0.             -DE/DX =    0.               !
 ! D16   D(7,8,9,3)            180.             -DE/DX =    0.               !
 -----------------------------------------------------------------------------
 GradGradGradGradGradGradGradGradGradGradGradGradGradGradGradGradGradGrad

 1\1\ NATIONAL INSTITUTE OF STANDARDS AND TECHNOLOGY-NEVA\Freq\RB3LYP\6
 -31G\C3H4N2\RDJ3\06-Apr-2000\0\\#N GEOM=ALLCHECK GUESS=TCHECK RB3LYP/6
 -31G FREQ\\1H imidazole C3H4N2 casno=288324\\0,1\N,0.5017180415,0.,1.1
 358395053\H,0.487689238,0.,-2.0641010046\C,-1.0307438453,0.,-0.5487668
 196\H,-1.9122482809,0.,-1.1667565115\C,-0.8582532692,0.,0.8172748591\H
 ,-1.6098026047,0.,1.5885212676\H,2.2126988734,0.,-0.1594296019\C,1.143
 9215064,0.,-0.0282393755\N,0.2542985902,0.,-1.0843889529\\Version=SGI6
 4-G98RevA.7\State=1-A'\HF=-226.1416387\RMSD=3.797e-09\RMSF=2.021e-04\D
 ipole=-0.1706136,0.,-1.5536893\DipoleDeriv=-0.3673903,-0.0001782,0.049
 3542,-0.0008572,-0.3133513,0.0003747,0.0312043,0.0001011,-0.509331,0.1
 995069,-0.0000278,-0.0023209,-0.0000084,0.3941439,0.0000172,0.0007989,
 0.0001128,0.1682938,-0.0070442,0.0001217,-0.2298114,0.0001185,-0.09535
 82,-0.0001228,-0.0368646,0.0001153,0.2077568,0.0215653,-0.0001033,-0.0
 419813,0.0000178,0.1885568,-0.0000017,-0.0713681,-0.0000703,0.0409474,
 0.1663998,-0.0000483,-0.1071764,0.0004976,-0.1276884,-0.0002381,-0.109
 6149,0.0000654,0.081662,0.0036258,0.0001332,0.0709619,-0.0001175,0.154
 2042,0.0000803,0.0749731,-0.000123,0.0343569,-0.0165376,0.0000318,0.02
 55956,0.0000086,0.1649907,0.0000295,0.038144,-0.0000003,0.0752013,0.13
 28317,0.0000246,0.0864998,0.0006032,0.0038896,-0.0002348,-0.0122337,-0
 .0001317,0.5092439,-0.1329567,0.0000462,0.1488784,-0.0002624,-0.369387
 1,0.0000957,0.0849608,-0.0000694,-0.6081305\Polar=47.6561195,0.0020376
 ,15.8014512,-0.8879772,-0.0008483,45.0366495\PG=CS [SG(C3H4N2)]\NImag=
 0\\0.46480645,-0.00005341,0.10447957,-0.06111115,0.00002214,0.53917239
 ,-0.00346438,-0.00000530,-0.00770146,0.08544977,0.00000039,0.00636654,
 -0.00000241,0.00000005,0.01505131,-0.00292003,0.00001599,-0.00254756,-
 0.09534164,-0.00000138,0.45914726,-0.03671786,0.00001330,-0.01892994,0
 .00579831,0.00000020,-0.00560875,0.74422437,0.00000813,0.01729689,-0.0
 0000222,0.00000042,-0.00479346,-0.00000118,-0.00000122,0.11893795,-0.0
 8547262,0.00004486,-0.02623762,0.03093778,0.00000086,-0.00098247,0.175
 82793,-0.00000764,0.74695076,0.00166822,-0.00000843,0.00166456,0.00013
 054,-0.00000068,0.00031359,-0.26521191,0.00000267,-0.14460460,0.278041
 50,0.00000188,0.00709004,-0.00000117,0.00000048,-0.00124225,-0.0000021
 4,-0.00000174,-0.02379007,-0.00000116,0.00000098,0.01976870,-0.0033198
 9,-0.00000716,-0.00449902,-0.00097338,-0.00000062,0.00019354,-0.155370
 05,0.00000223,-0.16734437,0.15639861,0.00000068,0.16091327,-0.22740606
 ,-0.00000516,-0.01862677,-0.00830539,-0.00000049,-0.00181102,-0.103971
 88,0.00000004,-0.02144257,0.00571504,0.00000036,-0.02293967,0.64626222
 ,0.00002723,-0.07118986,-0.00000895,0.00000204,0.00304812,-0.00000364,
 -0.00000388,-0.06914357,-0.00002475,0.00000309,-0.00052503,0.00000296,
 0.00000292,0.13828958,-0.04246450,-0.00000902,-0.10173933,0.00325482,0
 .00000164,0.00110295,-0.03325341,0.00000074,-0.38940856,0.00335182,0.0
 0000012,0.00158784,-0.17638913,0.00000368,0.80124196,-0.01889688,0.000
 03158,0.02066213,0.00074879,0.00000162,0.00011609,0.00913594,-0.000005
 23,-0.00768073,-0.00016375,-0.00000106,0.00081810,-0.20043757,-0.00001
 766,0.15445750,0.21454263,-0.00000689,-0.00500501,0.00000301,-0.000000
 23,0.00163850,0.00000042,-0.00000011,0.00038162,0.00000619,-0.00000070
 ,-0.00235303,-0.00000063,-0.00000006,-0.03089462,-0.00000172,0.0000036
 3,0.02408640,-0.00925636,-0.00002925,0.01137021,0.00116852,-0.00000126
 ,0.00008879,0.02162157,0.00000451,-0.00771874,-0.00058853,0.00000088,-
 0.00026331,0.15726438,0.00001650,-0.22629570,-0.16427140,-0.00000347,0
 .22638715,-0.00695297,0.00000983,0.00161804,-0.00053048,-0.00000087,-0
 .00062588,0.00158316,0.00000022,-0.00243114,-0.00028014,-0.00000004,0.
 00028885,0.00163122,-0.00000648,0.00159404,-0.00037567,0.00000169,-0.0
 0010267,0.38134524,0.00000126,-0.00527393,-0.00000269,-0.00000026,-0.0
 0119932,0.00000022,0.00000246,0.00279696,-0.00000010,-0.00000352,0.001
 60951,-0.00000234,-0.00000163,0.00729691,0.00000531,0.00000273,0.00098
 407,-0.00000215,-0.00000018,0.02097917,0.02929186,-0.00000122,-0.00050
 791,0.00056697,0.,0.00019938,-0.00110990,0.00000014,-0.00573361,-0.000
 92893,-0.00000007,0.00099584,0.00288998,0.00000102,-0.00397766,0.00133
 169,-0.00000035,0.00063469,-0.03803232,-0.00000005,0.06234490,-0.16529
 266,0.00000836,0.10749753,0.01713777,-0.00000086,0.01569641,-0.0954897
 8,-0.00000255,-0.00016655,-0.00232785,-0.00000005,0.00467217,-0.094548
 75,-0.00000317,0.02148865,-0.00524739,0.00000185,-0.00457306,-0.364785
 80,-0.00000267,0.03696059,0.90754611,0.00004071,-0.07667385,-0.0000185
 9,0.00000483,-0.00575559,-0.00001639,-0.00001421,0.01827833,-0.0000327
 0,0.00000902,0.00302937,0.00000700,0.00000490,0.01033992,0.00000519,-0
 .00002433,0.00544450,0.00002237,-0.00000655,-0.02532075,0.00000063,-0.
 00000651,0.13682932,0.14487173,-0.00001992,-0.30515842,-0.02018587,0.0
 0000274,-0.01080510,-0.04381098,0.00000096,-0.01140839,0.00375865,0.00
 000232,-0.00535682,0.06843873,0.00000431,-0.00915888,-0.00175629,-0.00
 000078,0.00074738,0.03238885,0.00000247,-0.06029661,-0.09560946,0.0000
 1988,0.59953399,-0.00774388,0.00000923,-0.02507294,-0.09696493,0.00000
 064,0.09018123,-0.25935036,-0.00000249,0.05503252,-0.01757165,-0.00000
 080,0.02042526,-0.01893886,-0.00000410,0.06796022,0.00069391,0.0000008
 1,-0.00126246,-0.01163456,0.00000181,-0.03096993,-0.19699167,-0.000007
 87,-0.08809534,0.60850200,-0.00001931,0.02290961,0.00001089,-0.0000020
 3,-0.01311385,0.00000810,0.00000520,-0.05996465,0.00001447,-0.00000244
 ,-0.00358723,-0.00000212,-0.00000088,0.01277855,-0.00000595,0.00000871
 ,0.00571757,-0.00000814,0.00000239,-0.00187262,-0.00000012,0.00000558,
 -0.06617124,-0.00001197,0.00000278,0.10330385,0.03038097,-0.00001641,-
 0.10985272,0.08827426,0.00000043,-0.44639678,0.06063354,0.00000246,-0.
 13811701,-0.01936516,0.00000053,0.01377302,0.01261608,0.00000888,-0.07
 335261,-0.00367708,-0.00000267,-0.00495047,0.00530221,-0.00000066,0.00
 634100,-0.08596626,0.00001260,-0.19809715,-0.08819856,-0.00000516,0.95
 065271\\-0.00043692,0.,-0.00004372,0.00001441,0.,0.00001869,-0.0003444
 0,0.,0.00026008,0.00005748,0.,0.00001849,0.00039548,0.,0.00005321,-0.0
 0001900,0.,-0.00008039,-0.00009725,0.,0.00001005,0.00047272,0.,0.00026
 283,-0.00004253,0.,-0.00049924\\\@

 LIFE CAN ONLY BE UNDERSTOOD BACKWARD, BUT MUST
 BE LIVED FORWARD. -- KIRKEGAARD
 Job cpu time:  0 days  0 hours  1 minutes 46.9 seconds.
 File lengths (MBytes):  RWF=   10 Int=    0 D2E=    0 Chk=    4 Scr=    1
 Normal termination of Gaussian 98.
