 Gaussian 09, Revision D.01,
 Gaussian 09:  EM64L-G09RevD.01 24-Apr-2013

 ----------------------------
 #CCSD/TZVP opt=z-matrix freq
 ----------------------------

 -------------------------------------------------------------------
 1H-tetrazole CH2N4 casno=288948 state=1 config=1 method=11 basis=32
 -------------------------------------------------------------------
 Symbolic Z-matrix:
 Charge =  0 Multiplicity = 1

 SCF Done:  E(RHF) =  -256.833827633     A.U. after   14 cycles
 E2 =    -0.8219230097D+00 EUMP2 =    -0.25765575064234D+03
 SCF Done:  E(RHF) =  -256.830296516     A.U. after   13 cycles
 E2 =    -0.8300353343D+00 EUMP2 =    -0.25766033185038D+03
 SCF Done:  E(RHF) =  -256.829766135     A.U. after   11 cycles
 E2 =    -0.8307656508D+00 EUMP2 =    -0.25766053178531D+03
 SCF Done:  E(RHF) =  -256.830165274     A.U. after   12 cycles
 E2 =    -0.8300220772D+00 EUMP2 =    -0.25766018735122D+03
 SCF Done:  E(RHF) =  -256.829537175     A.U. after   11 cycles
 E2 =    -0.8310446454D+00 EUMP2 =    -0.25766058182044D+03
 SCF Done:  E(RHF) =  -256.829744590     A.U. after   10 cycles
 E2 =    -0.8308026092D+00 EUMP2 =    -0.25766054719953D+03
 SCF Done:  E(RHF) =  -256.829661934     A.U. after   10 cycles
 E2 =    -0.8309065019D+00 EUMP2 =    -0.25766056843598D+03
 SCF Done:  E(RHF) =  -256.829688369     A.U. after   10 cycles
 E2 =    -0.8308861055D+00 EUMP2 =    -0.25766057447424D+03
 SCF Done:  E(RHF) =  -256.829619156     A.U. after    9 cycles
 E2 =    -0.8309661376D+00 EUMP2 =    -0.25766058529334D+03
 SCF Done:  E(RHF) =  -256.829579663     A.U. after   10 cycles
 E2 =    -0.8310073113D+00 EUMP2 =    -0.25766058697437D+03
 E2 =    -0.8309680408D+00 EUMP2 =    -0.25766058498030D+03
 E2 =    -0.8309414831D+00 EUMP2 =    -0.25766057814611D+03
 E2 =    -0.8309664180D+00 EUMP2 =    -0.25766058406680D+03
 E2 =    -0.8309551061D+00 EUMP2 =    -0.25766058198112D+03
 E2 =    -0.8309638176D+00 EUMP2 =    -0.25766058351988D+03
 E2 =    -0.8309744784D+00 EUMP2 =    -0.25766058419095D+03
 E2 =    -0.8309642456D+00 EUMP2 =    -0.25766058356716D+03
 Optimization completed.
    -- Stationary point found.
 Normal termination of Gaussian 09 at Tue Nov 26 02:42:53 2013.

 -------------------------------------------------------------------
 #N Geom=AllCheck Guess=TCheck SCRF=Check GenChk RCCSD(FC)/TZVP Freq
 -------------------------------------------------------------------

 Structure from the checkpoint file:  "/tmp/rdj3/g09-17492/Gau-23838.chk"
 -------------------------------------------------------------------
 1H-tetrazole CH2N4 casno=288948 state=1 config=1 method=11 basis=32
 -------------------------------------------------------------------
 Charge =  0 Multiplicity = 1

                         Standard orientation:
 ---------------------------------------------------------------------
 Center     Atomic      Atomic             Coordinates (Angstroms)
 Number     Number       Type             X           Y           Z
 ---------------------------------------------------------------------
      1          6           0        1.064062    0.233363    0.000000
      2          7           0        0.000000    1.054178    0.000000
      3          7           0       -1.117748    0.299026    0.000000
      4          7           0       -0.725264   -0.922302    0.000000
      5          7           0        0.641388   -1.004693    0.000000
      6          1           0        2.088565    0.558538    0.000000
      7          1           0       -0.061570    2.057827    0.000000
 ---------------------------------------------------------------------

 E2 =    -0.8309642437D+00 EUMP2 =    -0.25766058356524D+03
 E2 =    -0.8310117102D+00 EUMP2 =    -0.25766059282433D+03
 E2 =    -0.8309170170D+00 EUMP2 =    -0.25766057101777D+03
 E2 =    -0.8309570315D+00 EUMP2 =    -0.25766059547676D+03
 E2 =    -0.8309715914D+00 EUMP2 =    -0.25766057016742D+03
 E2 =    -0.8308390261D+00 EUMP2 =    -0.25766054238562D+03
 E2 =    -0.8310896687D+00 EUMP2 =    -0.25766062260243D+03
 E2 =    -0.8309643375D+00 EUMP2 =    -0.25766058336672D+03
 E2 =    -0.8309930402D+00 EUMP2 =    -0.25766057701088D+03
 E2 =    -0.8309355586D+00 EUMP2 =    -0.25766058875589D+03
 E2 =    -0.8308845227D+00 EUMP2 =    -0.25766056390849D+03
 E2 =    -0.8310440993D+00 EUMP2 =    -0.25766060095366D+03
 E2 =    -0.8309643159D+00 EUMP2 =    -0.25766058338644D+03
 SCF Done:  E(RHF) =  -256.829608500     A.U. after    7 cycles
 E2 =    -0.8309742614D+00 EUMP2 =    -0.25766058276155D+03
 SCF Done:  E(RHF) =  -256.829628826     A.U. after    7 cycles
 E2 =    -0.8309542548D+00 EUMP2 =    -0.25766058308111D+03
 SCF Done:  E(RHF) =  -256.829615386     A.U. after    7 cycles
 E2 =    -0.8309683315D+00 EUMP2 =    -0.25766058371788D+03
 SCF Done:  E(RHF) =  -256.829622923     A.U. after    8 cycles
 E2 =    -0.8309601727D+00 EUMP2 =    -0.25766058309603D+03
 SCF Done:  E(RHF) =  -256.829619265     A.U. after    6 cycles
 E2 =    -0.8309642576D+00 EUMP2 =    -0.25766058352229D+03
 SCF Done:  E(RHF) =  -256.829621346     A.U. after    6 cycles
 E2 =    -0.8309611632D+00 EUMP2 =    -0.25766058250969D+03
 SCF Done:  E(RHF) =  -256.829617021     A.U. after    7 cycles
 E2 =    -0.8309673739D+00 EUMP2 =    -0.25766058439474D+03
 SCF Done:  E(RHF) =  -256.829594033     A.U. after    7 cycles
 E2 =    -0.8309940310D+00 EUMP2 =    -0.25766058806370D+03
 SCF Done:  E(RHF) =  -256.829642839     A.U. after    8 cycles
 E2 =    -0.8309344753D+00 EUMP2 =    -0.25766057731463D+03
 SCF Done:  E(RHF) =  -256.829619285     A.U. after    6 cycles
 E2 =    -0.8309642556D+00 EUMP2 =    -0.25766058354031D+03

 Alpha  occ. eigenvalues --  -15.68477 -15.66749 -15.64952 -15.60666 -11.34088
 Alpha  occ. eigenvalues --   -1.50180  -1.25956  -1.20382  -0.91095  -0.89424
 Alpha  occ. eigenvalues --   -0.80539  -0.68108  -0.67939  -0.57305  -0.48106
 Alpha  occ. eigenvalues --   -0.47613  -0.45800  -0.42509
 Alpha virt. eigenvalues --    0.11202   0.12424   0.16746   0.16933   0.22177
 Alpha virt. eigenvalues --    0.23689   0.32820   0.32919   0.38491   0.40263
 Alpha virt. eigenvalues --    0.43932   0.47349   0.48808   0.49616   0.51363

 Mulliken charges:
               1
     1  C   -0.101474
     2  N   -0.091950
     3  N   -0.058969
     4  N   -0.070256
     5  N   -0.065208
     6  H    0.132147
     7  H    0.255711
 Sum of Mulliken charges =   0.00000

 Dipole moment (field-independent basis, Debye):
    X=              2.5207    Y=              4.8827    Z=              0.0017  Tot=              5.4949
 Quadrupole moment (field-independent basis, Debye-Ang):
   XX=            -29.6203   YY=            -27.1659   ZZ=            -28.7833
   XY=              1.9477   XZ=             -0.0001   YZ=              0.0039

                      1                      2                      3
                     A"                     A"                     A"
 Frequencies --    459.8962               680.1400               719.2239
 Red. masses --      1.9150                 2.1009                 7.2800
 Frc consts  --      0.2386                 0.5726                 2.2188
 IR Inten    --     76.9418                11.3959                 9.1259

                      4                      5                      6
                     A"                     A'                     A'
 Frequencies --    838.7453               972.2096              1018.7118
 Red. masses --      1.2601                 6.1767                 7.6943
 Frc consts  --      0.5223                 3.4397                 4.7046
 IR Inten    --     27.7780                 3.0386                 0.3703

                      7                      8                      9
                     A'                     A'                     A'
 Frequencies --   1060.9467              1087.2191              1169.8753
 Red. masses --      4.9603                 3.2475                 1.8336
 Frc consts  --      3.2896                 2.2617                 1.4786
 IR Inten    --     22.3580                24.4466                16.2928

                     10                     11                     12
                     A'                     A'                     A'
 Frequencies --   1301.0546              1335.5009              1497.5412
 Red. masses --      2.4189                 8.9357                 2.9458
 Frc consts  --      2.4125                 9.3900                 3.8924
 IR Inten    --      0.6093                19.3339                14.3567

                     13                     14                     15
                     A'                     A'                     A'
 Frequencies --   1549.8520              3335.4384              3714.5786
 Red. masses --      3.2966                 1.1018                 1.0840
 Frc consts  --      4.6654                 7.2220                 8.8125
 IR Inten    --     20.9444                 1.3402               113.0552

 - Thermochemistry -
 -------------------
 Temperature   298.150 Kelvin.  Pressure   1.00000 Atm.
 Atom     1 has atomic number  6 and mass  12.00000

 Molecular mass:    70.02795 amu.
 Principal axes and moments of inertia in atomic units:
                           1         2         3
     Eigenvalues --   170.70445 174.07946 344.78391
           X            0.88956   0.45682   0.00000
           Y           -0.45682   0.88956   0.00000
           Z            0.00000   0.00000   1.00000
 This molecule is an asymmetric top.
 Rotational symmetry number  1.
 Rotational temperatures (Kelvin)      0.50739     0.49755     0.25121
 Rotational constants (GHZ):          10.57231    10.36734     5.23441
 Zero-point vibrational energy     124058.3 (Joules/Mol)
                                   29.65065 (Kcal/Mol)
 Warning -- explicit consideration of   1 degrees of freedom as
           vibrations may cause significant error
 Vibrational temperatures:    661.69   978.57  1034.80  1206.77  1398.79
          (Kelvin)           1465.70  1526.46  1564.26  1683.19  1871.93
                             1921.49  2154.63  2229.89  4798.95  5344.44

 Zero-point correction=                           0.047251 (Hartree/Particle)
 Thermal correction to Energy=                    0.050813
 Thermal correction to Enthalpy=                  0.051757
 Thermal correction to Gibbs Free Energy=         0.021108
 Sum of electronic and zero-point Energies=           -257.615756
 Sum of electronic and thermal Energies=              -257.612195
 Sum of electronic and thermal Enthalpies=            -257.611251
 Sum of electronic and thermal Free Energies=         -257.641900

                     E (Thermal)             CV                S
                      KCal/Mol        Cal/Mol-Kelvin    Cal/Mol-Kelvin
 Total                   31.885             11.565             64.506
 Electronic               0.000              0.000              0.000
 Translational            0.889              2.981             38.656
 Rotational               0.889              2.981             23.842
 Vibrational             30.108              5.604              2.008
 Vibration     1          0.818              1.339              0.766

 Optimization completed.
    -- Stationary point found.
 Normal termination of Gaussian 09 at Tue Nov 26 08:41:27 2013.
