 Gaussian 09, Revision D.01,
 Gaussian 09:  EM64L-G09RevD.01 24-Apr-2013

 ---------------------
 #CCSD/6-31G* opt freq
 ---------------------

 ------------------------------------------------------------------
 1H-tetrazole CH2N4 casno=288948 state=1 config=1 method=11 basis=1
 ------------------------------------------------------------------
 Symbolic Z-matrix:
 Charge =  0 Multiplicity = 1

 SCF Done:  E(RHF) =  -256.754076285     A.U. after   15 cycles
 E2 =    -0.7737063668D+00 EUMP2 =    -0.25752778265216D+03
 SCF Done:  E(RHF) =  -256.749302514     A.U. after   13 cycles
 E2 =    -0.7853447094D+00 EUMP2 =    -0.25753464722339D+03
 SCF Done:  E(RHF) =  -256.748637928     A.U. after   11 cycles
 E2 =    -0.7862882628D+00 EUMP2 =    -0.25753492619077D+03
 SCF Done:  E(RHF) =  -256.748449947     A.U. after   10 cycles
 E2 =    -0.7865640960D+00 EUMP2 =    -0.25753501404324D+03
 SCF Done:  E(RHF) =  -256.748602253     A.U. after   10 cycles
 E2 =    -0.7863800225D+00 EUMP2 =    -0.25753498227586D+03
 Optimization completed.
    -- Stationary point found.
 Normal termination of Gaussian 09 at Wed Dec 18 07:04:26 2013.

 ----------------------------------------------------------------------
 #N Geom=AllCheck Guess=TCheck SCRF=Check GenChk RCCSD(FC)/6-31G(d) Fre
 q
 ----------------------------------------------------------------------

 Structure from the checkpoint file:  "/tmp/rdj3/g09-14834/Gau-22942.chk"
 ------------------------------------------------------------------
 1H-tetrazole CH2N4 casno=288948 state=1 config=1 method=11 basis=1
 ------------------------------------------------------------------
 Charge =  0 Multiplicity = 1

                         Standard orientation:
 ---------------------------------------------------------------------
 Center     Atomic      Atomic             Coordinates (Angstroms)
 Number     Number       Type             X           Y           Z
 ---------------------------------------------------------------------
      1          6           0        1.068071    0.235577    0.000000
      2          7           0        0.000000    1.056265    0.000000
      3          7           0       -1.122560    0.302285    0.000000
      4          7           0       -0.726106   -0.927520    0.000000
      5          7           0        0.642610   -1.008571    0.000000
      6          1           0        2.097872    0.563311    0.000000
      7          1           0       -0.063901    2.066020    0.000000
 ---------------------------------------------------------------------

 SCF Done:  E(RHF) =  -256.748602253     A.U. after    1 cycles
 E2 =    -0.7863800218D+00 EUMP2 =    -0.25753498227516D+03
 SCF Done:  E(RHF) =  -256.748564027     A.U. after    9 cycles
 E2 =    -0.7864297502D+00 EUMP2 =    -0.25753499377757D+03
 SCF Done:  E(RHF) =  -256.748636943     A.U. after   10 cycles
 E2 =    -0.7863305131D+00 EUMP2 =    -0.25753496745593D+03
 SCF Done:  E(RHF) =  -256.748572740     A.U. after   10 cycles
 E2 =    -0.7864247540D+00 EUMP2 =    -0.25753499749393D+03
 SCF Done:  E(RHF) =  -256.748629217     A.U. after   11 cycles
 E2 =    -0.7863353036D+00 EUMP2 =    -0.25753496452086D+03
 E2 =    -0.7863801458D+00 EUMP2 =    -0.25753498204923D+03
 E2 =    -0.7863911080D+00 EUMP2 =    -0.25753497972126D+03
 E2 =    -0.7863690237D+00 EUMP2 =    -0.25753498264627D+03
 E2 =    -0.7864010197D+00 EUMP2 =    -0.25753497716830D+03
 E2 =    -0.7863592250D+00 EUMP2 =    -0.25753498369174D+03
 E2 =    -0.7863800808D+00 EUMP2 =    -0.25753498211581D+03
 E2 =    -0.7862862756D+00 EUMP2 =    -0.25753496563864D+03
 E2 =    -0.7864739528D+00 EUMP2 =    -0.25753499697623D+03
 E2 =    -0.7864935677D+00 EUMP2 =    -0.25753502341734D+03
 E2 =    -0.7862665390D+00 EUMP2 =    -0.25753493924570D+03
 E2 =    -0.7863680388D+00 EUMP2 =    -0.25753499432856D+03
 E2 =    -0.7863921132D+00 EUMP2 =    -0.25753496868207D+03
 E2 =    -0.7862438411D+00 EUMP2 =    -0.25753493990377D+03
 E2 =    -0.7865163820D+00 EUMP2 =    -0.25753502248917D+03
 E2 =    -0.7863801125D+00 EUMP2 =    -0.25753498206674D+03
 E2 =    -0.7864122603D+00 EUMP2 =    -0.25753497509191D+03
 E2 =    -0.7863478600D+00 EUMP2 =    -0.25753498802875D+03
 E2 =    -0.7862959093D+00 EUMP2 =    -0.25753496363793D+03
 E2 =    -0.7864642593D+00 EUMP2 =    -0.25753499863320D+03
 E2 =    -0.7863800916D+00 EUMP2 =    -0.25753498208701D+03
 SCF Done:  E(RHF) =  -256.748583198     A.U. after    7 cycles
 E2 =    -0.7863968870D+00 EUMP2 =    -0.25753498008459D+03
 SCF Done:  E(RHF) =  -256.748619994     A.U. after    8 cycles
 E2 =    -0.7863631888D+00 EUMP2 =    -0.25753498318264D+03
 SCF Done:  E(RHF) =  -256.748596201     A.U. after    8 cycles
 E2 =    -0.7863858789D+00 EUMP2 =    -0.25753498207990D+03
 SCF Done:  E(RHF) =  -256.748607967     A.U. after    9 cycles
 E2 =    -0.7863741935D+00 EUMP2 =    -0.25753498216044D+03
 SCF Done:  E(RHF) =  -256.748602192     A.U. after    7 cycles
 E2 =    -0.7863800419D+00 EUMP2 =    -0.25753498223395D+03
 SCF Done:  E(RHF) =  -256.748605111     A.U. after    7 cycles
 E2 =    -0.7863761945D+00 EUMP2 =    -0.25753498130530D+03
 SCF Done:  E(RHF) =  -256.748599113     A.U. after    8 cycles
 E2 =    -0.7863839154D+00 EUMP2 =    -0.25753498302887D+03
 SCF Done:  E(RHF) =  -256.748569436     A.U. after    7 cycles
 E2 =    -0.7864155140D+00 EUMP2 =    -0.25753498495046D+03
 SCF Done:  E(RHF) =  -256.748633329     A.U. after    8 cycles
 E2 =    -0.7863445580D+00 EUMP2 =    -0.25753497788675D+03
 SCF Done:  E(RHF) =  -256.748602213     A.U. after    6 cycles
 E2 =    -0.7863800360D+00 EUMP2 =    -0.25753498224923D+03

 Alpha  occ. eigenvalues --  -15.68927 -15.67018 -15.65225 -15.60915 -11.34317
 Alpha  occ. eigenvalues --   -1.49107  -1.25289  -1.19514  -0.90496  -0.88749
 Alpha  occ. eigenvalues --   -0.79818  -0.67437  -0.67269  -0.56730  -0.47652
 Alpha  occ. eigenvalues --   -0.47171  -0.45225  -0.41778
 Alpha virt. eigenvalues --    0.13885   0.18754   0.19643   0.25049   0.36727
 Alpha virt. eigenvalues --    0.37770   0.47482   0.49901   0.64442   0.73639
 Alpha virt. eigenvalues --    0.73923   0.82431   0.82577   0.89488   0.91704

 Mulliken charges:
               1
     1  C    0.235165
     2  N   -0.467683
     3  N   -0.027586
     4  N   -0.077181
     5  N   -0.300700
     6  H    0.233140
     7  H    0.404845
 Sum of Mulliken charges =   0.00000

 Dipole moment (field-independent basis, Debye):
    X=              2.5378    Y=              4.8650    Z=              0.0018  Tot=              5.4871
 Quadrupole moment (field-independent basis, Debye-Ang):
   XX=            -28.9663   YY=            -26.4946   ZZ=            -28.5701
   XY=              1.9055   XZ=             -0.0001   YZ=              0.0040

                      1                      2                      3
                     A"                     A"                     A"
 Frequencies --    559.7555               693.2270               739.4975
 Red. masses --      1.7740                 2.0543                 7.8994
 Frc consts  --      0.3275                 0.5817                 2.5452
 IR Inten    --    104.5892                 9.2561                 9.7622

                      4                      5                      6
                     A"                     A'                     A'
 Frequencies --    865.9508               985.7056              1025.2371
 Red. masses --      1.3301                 5.3038                 6.9514
 Frc consts  --      0.5877                 3.0362                 4.3050
 IR Inten    --     20.2876                 2.1864                 0.6934

                      7                      8                      9
                     A'                     A'                     A'
 Frequencies --   1081.6388              1098.8117              1177.5547
 Red. masses --      5.8405                 3.0086                 1.7488
 Frc consts  --      4.0259                 2.1402                 1.4287
 IR Inten    --     18.9039                29.1086                14.4645

                     10                     11                     12
                     A'                     A'                     A'
 Frequencies --   1305.4986              1346.3106              1510.1026
 Red. masses --      2.4869                 9.7910                 3.0133
 Frc consts  --      2.4972                10.4561                 4.0486
 IR Inten    --      0.6953                18.4207                15.6345

                     13                     14                     15
                     A'                     A'                     A'
 Frequencies --   1555.4392              3330.7334              3687.5632
 Red. masses --      3.6864                 1.1020                 1.0843
 Frc consts  --      5.2549                 7.2032                 8.6869
 IR Inten    --     20.4372                 0.8580               107.2831

 - Thermochemistry -
 -------------------
 Temperature   298.150 Kelvin.  Pressure   1.00000 Atm.
 Atom     1 has atomic number  6 and mass  12.00000

 Molecular mass:    70.02795 amu.
 Principal axes and moments of inertia in atomic units:
                           1         2         3
     Eigenvalues --   172.00476 175.33731 347.34207
           X            0.87565   0.48295   0.00000
           Y           -0.48295   0.87565   0.00000
           Z            0.00000   0.00000   1.00000
 This molecule is an asymmetric top.
 Rotational symmetry number  1.
 Rotational temperatures (Kelvin)      0.50355     0.49398     0.24936
 Rotational constants (GHZ):          10.49239    10.29297     5.19586
 Zero-point vibrational energy     125386.7 (Joules/Mol)
                                   29.96815 (Kcal/Mol)
 Warning -- explicit consideration of   1 degrees of freedom as
           vibrations may cause significant error
 Vibrational temperatures:    805.36   997.40  1063.97  1245.91  1418.21
          (Kelvin)           1475.09  1556.24  1580.94  1694.24  1878.32
                             1937.04  2172.70  2237.93  4792.18  5305.57

 Zero-point correction=                           0.047757 (Hartree/Particle)
 Thermal correction to Energy=                    0.051219
 Thermal correction to Enthalpy=                  0.052163
 Thermal correction to Gibbs Free Energy=         0.021655
 Sum of electronic and zero-point Energies=           -257.493688
 Sum of electronic and thermal Energies=              -257.490226
 Sum of electronic and thermal Enthalpies=            -257.489282
 Sum of electronic and thermal Free Energies=         -257.519790

                     E (Thermal)             CV                S
                      KCal/Mol        Cal/Mol-Kelvin    Cal/Mol-Kelvin
 Total                   32.141             11.173             64.210
 Electronic               0.000              0.000              0.000
 Translational            0.889              2.981             38.656
 Rotational               0.889              2.981             23.864
 Vibrational             30.363              5.211              1.690
 Vibration     1          0.915              1.118              0.524

 Optimization completed.
    -- Stationary point found.
 Normal termination of Gaussian 09 at Wed Dec 18 09:09:45 2013.
