 Gaussian 09, Revision D.01,
 Gaussian 09:  EM64L-G09RevD.01 24-Apr-2013

 -------------------------------
 #CCSD/cc-pVDZ opt=z-matrix freq
 -------------------------------

 ------------------------------------------------------------------
 1H-tetrazole CH2N4 casno=288948 state=1 config=1 method=11 basis=5
 ------------------------------------------------------------------
 Symbolic Z-matrix:
 Charge =  0 Multiplicity = 1

 SCF Done:  E(RHF) =  -256.780056734     A.U. after   15 cycles
 E2 =    -0.7749059228D+00 EUMP2 =    -0.25755496265635D+03
 SCF Done:  E(RHF) =  -256.775043452     A.U. after   13 cycles
 E2 =    -0.7873661571D+00 EUMP2 =    -0.25756240960946D+03
 SCF Done:  E(RHF) =  -256.774620440     A.U. after   11 cycles
 E2 =    -0.7879743535D+00 EUMP2 =    -0.25756259479370D+03
 SCF Done:  E(RHF) =  -256.775056418     A.U. after   13 cycles
 E2 =    -0.7872172495D+00 EUMP2 =    -0.25756227366709D+03
 SCF Done:  E(RHF) =  -256.774375358     A.U. after   11 cycles
 E2 =    -0.7883177011D+00 EUMP2 =    -0.25756269305931D+03
 SCF Done:  E(RHF) =  -256.774610403     A.U. after   10 cycles
 E2 =    -0.7880113072D+00 EUMP2 =    -0.25756262171007D+03
 SCF Done:  E(RHF) =  -256.774313173     A.U. after   11 cycles
 E2 =    -0.7883550593D+00 EUMP2 =    -0.25756266823206D+03
 SCF Done:  E(RHF) =  -256.774362172     A.U. after    7 cycles
 E2 =    -0.7883384691D+00 EUMP2 =    -0.25756270064126D+03
 SCF Done:  E(RHF) =  -256.774401239     A.U. after   10 cycles
 E2 =    -0.7883000182D+00 EUMP2 =    -0.25756270125709D+03
 SCF Done:  E(RHF) =  -256.774410372     A.U. after   10 cycles
 E2 =    -0.7883052497D+00 EUMP2 =    -0.25756271562189D+03
 E2 =    -0.7882732584D+00 EUMP2 =    -0.25756271272176D+03
 E2 =    -0.7882932028D+00 EUMP2 =    -0.25756274084218D+03
 E2 =    -0.7882880060D+00 EUMP2 =    -0.25756272462135D+03
 Optimization completed.
    -- Stationary point found.
 Normal termination of Gaussian 09 at Tue Nov 26 09:13:06 2013.

 ----------------------------------------------------------------------
 #N Geom=AllCheck Guess=TCheck SCRF=Check GenChk RCCSD(FC)/CC-pVDZ Freq
 ----------------------------------------------------------------------

 Structure from the checkpoint file:  "/tmp/rdj3/g09-17492/Gau-31211.chk"
 ------------------------------------------------------------------
 1H-tetrazole CH2N4 casno=288948 state=1 config=1 method=11 basis=5
 ------------------------------------------------------------------
 Charge =  0 Multiplicity = 1

                         Standard orientation:
 ---------------------------------------------------------------------
 Center     Atomic      Atomic             Coordinates (Angstroms)
 Number     Number       Type             X           Y           Z
 ---------------------------------------------------------------------
      1          6           0        1.070003    0.231679    0.000000
      2          7           0        0.000000    1.058743    0.000000
      3          7           0       -1.120737    0.305605    0.000000
      4          7           0       -0.728455   -0.924365    0.000000
      5          7           0        0.639140   -1.014622    0.000000
      6          1           0        2.107114    0.561698    0.000000
      7          1           0       -0.056764    2.070701    0.000000
 ---------------------------------------------------------------------

 E2 =    -0.7882880063D+00 EUMP2 =    -0.25756272462163D+03
 E2 =    -0.7883427916D+00 EUMP2 =    -0.25756273534020D+03
 E2 =    -0.7882334301D+00 EUMP2 =    -0.25756271063414D+03
 E2 =    -0.7883340527D+00 EUMP2 =    -0.25756273959761D+03
 E2 =    -0.7882419639D+00 EUMP2 =    -0.25756270714578D+03
 E2 =    -0.7882881284D+00 EUMP2 =    -0.25756272439357D+03
 E2 =    -0.7882937606D+00 EUMP2 =    -0.25756272147163D+03
 E2 =    -0.7882765522D+00 EUMP2 =    -0.25756273670481D+03
 E2 =    -0.7882995694D+00 EUMP2 =    -0.25756271099788D+03
 E2 =    -0.7881528809D+00 EUMP2 =    -0.25756268257828D+03
 E2 =    -0.7884233095D+00 EUMP2 =    -0.25756276450154D+03
 E2 =    -0.7882881012D+00 EUMP2 =    -0.25756272441656D+03
 E2 =    -0.7883182180D+00 EUMP2 =    -0.25756271745062D+03
 E2 =    -0.7882578810D+00 EUMP2 =    -0.25756273039217D+03
 E2 =    -0.7881962679D+00 EUMP2 =    -0.25756270539705D+03
 E2 =    -0.7883798628D+00 EUMP2 =    -0.25756274158407D+03
 E2 =    -0.7882880825D+00 EUMP2 =    -0.25756272443881D+03
 SCF Done:  E(RHF) =  -256.774418219     A.U. after    7 cycles
 E2 =    -0.7883045732D+00 EUMP2 =    -0.25756272279237D+03
 SCF Done:  E(RHF) =  -256.774453722     A.U. after    7 cycles
 E2 =    -0.7882714721D+00 EUMP2 =    -0.25756272519418D+03
 SCF Done:  E(RHF) =  -256.774430179     A.U. after    7 cycles
 E2 =    -0.7882944230D+00 EUMP2 =    -0.25756272460207D+03
 SCF Done:  E(RHF) =  -256.774442724     A.U. after    8 cycles
 E2 =    -0.7882816298D+00 EUMP2 =    -0.25756272435397D+03
 SCF Done:  E(RHF) =  -256.774436555     A.U. after    6 cycles
 E2 =    -0.7882880297D+00 EUMP2 =    -0.25756272458510D+03
 SCF Done:  E(RHF) =  -256.774438694     A.U. after    6 cycles
 E2 =    -0.7882850177D+00 EUMP2 =    -0.25756272371192D+03
 SCF Done:  E(RHF) =  -256.774434270     A.U. after    7 cycles
 E2 =    -0.7882910699D+00 EUMP2 =    -0.25756272533944D+03
 SCF Done:  E(RHF) =  -256.774407391     A.U. after    7 cycles
 E2 =    -0.7883207399D+00 EUMP2 =    -0.25756272813132D+03
 SCF Done:  E(RHF) =  -256.774464099     A.U. after    8 cycles
 E2 =    -0.7882552960D+00 EUMP2 =    -0.25756271939500D+03
 SCF Done:  E(RHF) =  -256.774436578     A.U. after    6 cycles
 E2 =    -0.7882880243D+00 EUMP2 =    -0.25756272460244D+03

 Alpha  occ. eigenvalues --  -15.68367 -15.66310 -15.64525 -15.60529 -11.34472
 Alpha  occ. eigenvalues --   -1.48955  -1.25171  -1.19263  -0.90217  -0.88482
 Alpha  occ. eigenvalues --   -0.79329  -0.67079  -0.67070  -0.56468  -0.47488
 Alpha  occ. eigenvalues --   -0.46958  -0.45074  -0.41532
 Alpha virt. eigenvalues --    0.13849   0.15597   0.18703   0.19593   0.34621
 Alpha virt. eigenvalues --    0.37614   0.42820   0.48452   0.59738   0.66414
 Alpha virt. eigenvalues --    0.66589   0.75601   0.79558   0.82783   0.87093

 Mulliken charges:
               1
     1  C    0.214025
     2  N   -0.099275
     3  N   -0.054065
     4  N   -0.080964
     5  N   -0.202332
     6  H    0.078326
     7  H    0.144286
 Sum of Mulliken charges =   0.00000

 Dipole moment (field-independent basis, Debye):
    X=              2.4023    Y=              4.7000    Z=              0.0016  Tot=              5.2783
 Quadrupole moment (field-independent basis, Debye-Ang):
   XX=            -29.0735   YY=            -26.5767   ZZ=            -28.4002
   XY=              1.8134   XZ=             -0.0001   YZ=              0.0037

                      1                      2                      3
                     A"                     A"                     A"
 Frequencies --    552.8884               692.6285               742.2321
 Red. masses --      1.7127                 2.1311                 7.6480
 Frc consts  --      0.3085                 0.6024                 2.4824
 IR Inten    --     84.5000                 6.1874                 9.0905

                      4                      5                      6
                     A"                     A'                     A'
 Frequencies --    878.0398               979.7647              1019.8299
 Red. masses --      1.3437                 4.5692                 6.5308
 Frc consts  --      0.6104                 2.5842                 4.0020
 IR Inten    --     17.4794                 1.9538                 1.0639

                      7                      8                      9
                     A'                     A'                     A'
 Frequencies --   1075.8144              1090.9680              1157.8455
 Red. masses --      4.7591                 2.6624                 1.9765
 Frc consts  --      3.2453                 1.8670                 1.5612
 IR Inten    --     20.3610                26.9466                13.5520

                     10                     11                     12
                     A'                     A'                     A'
 Frequencies --   1290.7866              1347.9183              1500.9536
 Red. masses --      2.6803                 9.3491                 3.0360
 Frc consts  --      2.6311                10.0080                 4.0299
 IR Inten    --      0.2389                16.7965                13.8851

                     13                     14                     15
                     A'                     A'                     A'
 Frequencies --   1545.7740              3325.4784              3698.3729
 Red. masses --      4.1278                 1.1021                 1.0848
 Frc consts  --      5.8111                 7.1810                 8.7421
 IR Inten    --     15.7040                 1.1519               111.3138

 - Thermochemistry -
 -------------------
 Temperature   298.150 Kelvin.  Pressure   1.00000 Atm.
 Atom     1 has atomic number  6 and mass  12.00000

 Molecular mass:    70.02795 amu.
 Principal axes and moments of inertia in atomic units:
                           1         2         3
     Eigenvalues --   172.23932 175.82443 348.06375
           X            0.81392   0.58097   0.00000
           Y           -0.58097   0.81392   0.00000
           Z            0.00000   0.00000   1.00000
 This molecule is an asymmetric top.
 Rotational symmetry number  1.
 Rotational temperatures (Kelvin)      0.50287     0.49262     0.24884
 Rotational constants (GHZ):          10.47810    10.26445     5.18509
 Zero-point vibrational energy     125005.5 (Joules/Mol)
                                   29.87704 (Kcal/Mol)
 Warning -- explicit consideration of   1 degrees of freedom as
           vibrations may cause significant error
 Vibrational temperatures:    795.48   996.54  1067.91  1263.30  1409.66
          (Kelvin)           1467.31  1547.86  1569.66  1665.88  1857.15
                             1939.35  2159.53  2224.02  4784.62  5321.13

 Zero-point correction=                           0.047612 (Hartree/Particle)
 Thermal correction to Energy=                    0.051080
 Thermal correction to Enthalpy=                  0.052025
 Thermal correction to Gibbs Free Energy=         0.021505
 Sum of electronic and zero-point Energies=           -257.523122
 Sum of electronic and thermal Energies=              -257.519654
 Sum of electronic and thermal Enthalpies=            -257.518709
 Sum of electronic and thermal Free Energies=         -257.549229

                     E (Thermal)             CV                S
                      KCal/Mol        Cal/Mol-Kelvin    Cal/Mol-Kelvin
 Total                   32.053             11.216             64.234
 Electronic               0.000              0.000              0.000
 Translational            0.889              2.981             38.656
 Rotational               0.889              2.981             23.870
 Vibrational             30.276              5.254              1.708
 Vibration     1          0.908              1.133              0.538

 Optimization completed.
    -- Stationary point found.
 Normal termination of Gaussian 09 at Tue Nov 26 11:18:15 2013.
