 Gaussian 09, Revision D.01,
 Gaussian 09:  EM64L-G09RevD.01 24-Apr-2013

 --------------------------
 #CCSD/aug-cc-pVDZ opt freq
 --------------------------

 -------------------------------------------------------------------
 1H-tetrazole CH2N4 casno=288948 state=1 config=1 method=11 basis=17
 -------------------------------------------------------------------
 Symbolic Z-matrix:
 Charge =  0 Multiplicity = 1

 SCF Done:  E(RHF) =  -256.797933873     A.U. after   15 cycles
 E2 =    -0.8075654250D+00 EUMP2 =    -0.25760549929751D+03
 SCF Done:  E(RHF) =  -256.792727611     A.U. after   13 cycles
 E2 =    -0.8214646325D+00 EUMP2 =    -0.25761419224310D+03
 SCF Done:  E(RHF) =  -256.791823420     A.U. after   11 cycles
 E2 =    -0.8227156341D+00 EUMP2 =    -0.25761453905388D+03
 SCF Done:  E(RHF) =  -256.791628034     A.U. after   11 cycles
 E2 =    -0.8230207402D+00 EUMP2 =    -0.25761464877427D+03
 SCF Done:  E(RHF) =  -256.791802290     A.U. after   10 cycles
 E2 =    -0.8228125272D+00 EUMP2 =    -0.25761461481713D+03
 Optimization completed.
    -- Stationary point found.
 Normal termination of Gaussian 09 at Tue Dec 17 14:58:38 2013.

 ----------------------------------------------------------------------
 #N Geom=AllCheck Guess=TCheck SCRF=Check GenChk RCCSD(FC)/Aug-CC-pVDZ
 Freq
 ----------------------------------------------------------------------

 Structure from the checkpoint file:  "/tmp/rdj3/g09-14834/Gau-14890.chk"
 -------------------------------------------------------------------
 1H-tetrazole CH2N4 casno=288948 state=1 config=1 method=11 basis=17
 -------------------------------------------------------------------
 Charge =  0 Multiplicity = 1

                         Standard orientation:
 ---------------------------------------------------------------------
 Center     Atomic      Atomic             Coordinates (Angstroms)
 Number     Number       Type             X           Y           Z
 ---------------------------------------------------------------------
      1          6           0        1.072274    0.235172    0.000000
      2          7           0        0.000000    1.060160    0.000000
      3          7           0       -1.124364    0.305158    0.000000
      4          7           0       -0.729861   -0.928545    0.000000
      5          7           0        0.642603   -1.014709    0.000000
      6          1           0        2.107282    0.564772    0.000000
      7          1           0       -0.059574    2.069745    0.000000
 ---------------------------------------------------------------------

 SCF Done:  E(RHF) =  -256.791802290     A.U. after    1 cycles
 E2 =    -0.8228125255D+00 EUMP2 =    -0.25761461481539D+03
 SCF Done:  E(RHF) =  -256.791754517     A.U. after    9 cycles
 E2 =    -0.8228735333D+00 EUMP2 =    -0.25761462804989D+03
 SCF Done:  E(RHF) =  -256.791846614     A.U. after   10 cycles
 E2 =    -0.8227517227D+00 EUMP2 =    -0.25761459833680D+03
 SCF Done:  E(RHF) =  -256.791770999     A.U. after   10 cycles
 E2 =    -0.8228605923D+00 EUMP2 =    -0.25761463159124D+03
 SCF Done:  E(RHF) =  -256.791831140     A.U. after   11 cycles
 E2 =    -0.8227644545D+00 EUMP2 =    -0.25761459559500D+03
 E2 =    -0.8228126429D+00 EUMP2 =    -0.25761461458619D+03
 E2 =    -0.8228197606D+00 EUMP2 =    -0.25761461121736D+03
 E2 =    -0.8228053863D+00 EUMP2 =    -0.25761461630332D+03
 E2 =    -0.8228411434D+00 EUMP2 =    -0.25761460791833D+03
 E2 =    -0.8227840979D+00 EUMP2 =    -0.25761461805836D+03
 E2 =    -0.8228125756D+00 EUMP2 =    -0.25761461465194D+03
 E2 =    -0.8227146007D+00 EUMP2 =    -0.25761459789986D+03
 E2 =    -0.8229106570D+00 EUMP2 =    -0.25761462984920D+03
 E2 =    -0.8229293874D+00 EUMP2 =    -0.25761465897544D+03
 E2 =    -0.8226957277D+00 EUMP2 =    -0.25761456882265D+03
 E2 =    -0.8227980219D+00 EUMP2 =    -0.25761462708420D+03
 E2 =    -0.8228271305D+00 EUMP2 =    -0.25761460104680D+03
 E2 =    -0.8226705647D+00 EUMP2 =    -0.25761456918921D+03
 E2 =    -0.8229546817D+00 EUMP2 =    -0.25761465834805D+03
 E2 =    -0.8228126176D+00 EUMP2 =    -0.25761461461099D+03
 E2 =    -0.8228440321D+00 EUMP2 =    -0.25761460664792D+03
 E2 =    -0.8227811082D+00 EUMP2 =    -0.25761462161841D+03
 E2 =    -0.8227203096D+00 EUMP2 =    -0.25761459464994D+03
 E2 =    -0.8229048619D+00 EUMP2 =    -0.25761463277420D+03
 E2 =    -0.8228125944D+00 EUMP2 =    -0.25761461462838D+03
 SCF Done:  E(RHF) =  -256.791784187     A.U. after    6 cycles
 E2 =    -0.8228290730D+00 EUMP2 =    -0.25761461326037D+03
 SCF Done:  E(RHF) =  -256.791819110     A.U. after    7 cycles
 E2 =    -0.8227959842D+00 EUMP2 =    -0.25761461509383D+03
 SCF Done:  E(RHF) =  -256.791796041     A.U. after    7 cycles
 E2 =    -0.8228187789D+00 EUMP2 =    -0.25761461481980D+03
 SCF Done:  E(RHF) =  -256.791808212     A.U. after    8 cycles
 E2 =    -0.8228062973D+00 EUMP2 =    -0.25761461450912D+03
 SCF Done:  E(RHF) =  -256.791802231     A.U. after    7 cycles
 E2 =    -0.8228125416D+00 EUMP2 =    -0.25761461477222D+03
 SCF Done:  E(RHF) =  -256.791804715     A.U. after    7 cycles
 E2 =    -0.8228090369D+00 EUMP2 =    -0.25761461375200D+03
 SCF Done:  E(RHF) =  -256.791799594     A.U. after    8 cycles
 E2 =    -0.8228160710D+00 EUMP2 =    -0.25761461566495D+03
 SCF Done:  E(RHF) =  -256.791772229     A.U. after    7 cycles
 E2 =    -0.8228471711D+00 EUMP2 =    -0.25761461939989D+03
 SCF Done:  E(RHF) =  -256.791830610     A.U. after    8 cycles
 E2 =    -0.8227778923D+00 EUMP2 =    -0.25761460850281D+03
 SCF Done:  E(RHF) =  -256.791802253     A.U. after    6 cycles
 E2 =    -0.8228125355D+00 EUMP2 =    -0.25761461478839D+03

 Alpha  occ. eigenvalues --  -15.69131 -15.67614 -15.66070 -15.61792 -11.35127
 Alpha  occ. eigenvalues --   -1.49168  -1.25575  -1.19716  -0.90810  -0.89000
 Alpha  occ. eigenvalues --   -0.79818  -0.67603  -0.67336  -0.57088  -0.48147
 Alpha  occ. eigenvalues --   -0.47844  -0.45466  -0.41974
 Alpha virt. eigenvalues --    0.01927   0.04143   0.08114   0.08640   0.10908
 Alpha virt. eigenvalues --    0.12432   0.12696   0.14279   0.15611   0.16134
 Alpha virt. eigenvalues --    0.16680   0.17928   0.19793   0.19903   0.21491

 Mulliken charges:
               1
     1  C    0.950761
     2  N   -0.063475
     3  N   -0.156728
     4  N   -0.257655
     5  N   -0.341108
     6  H   -0.115466
     7  H   -0.016329
 Sum of Mulliken charges =   0.00000

 Dipole moment (field-independent basis, Debye):
    X=              2.5169    Y=              4.7749    Z=              0.0016  Tot=              5.3977
 Quadrupole moment (field-independent basis, Debye-Ang):
   XX=            -29.6130   YY=            -27.2396   ZZ=            -29.4780
   XY=              1.9738   XZ=             -0.0001   YZ=              0.0038

                      1                      2                      3
                     A"                     A"                     A"
 Frequencies --    552.5413               685.5583               729.6391
 Red. masses --      1.6931                 2.0776                 8.4767
 Frc consts  --      0.3046                 0.5753                 2.6588
 IR Inten    --     84.1521                 6.6932                 7.6063

                      4                      5                      6
                     A"                     A'                     A'
 Frequencies --    865.9626               967.1222              1010.9844
 Red. masses --      1.3533                 4.8978                 7.0587
 Frc consts  --      0.5979                 2.6991                 4.2507
 IR Inten    --     18.2964                 2.3677                 0.4185

                      7                      8                      9
                     A'                     A'                     A'
 Frequencies --   1059.7366              1081.4105              1149.4927
 Red. masses --      4.7760                 2.9590                 1.8951
 Frc consts  --      3.1602                 2.0388                 1.4754
 IR Inten    --     21.6911                24.8519                12.3547

                     10                     11                     12
                     A'                     A'                     A'
 Frequencies --   1279.7166              1326.1054              1488.4454
 Red. masses --      2.6015                 9.8638                 3.1720
 Frc consts  --      2.5102                10.2200                 4.1404
 IR Inten    --      0.1880                15.0480                13.3328

                     13                     14                     15
                     A'                     A'                     A'
 Frequencies --   1528.5642              3315.2145              3693.7019
 Red. masses --      3.4039                 1.1024                 1.0844
 Frc consts  --      4.6859                 7.1386                 8.7173
 IR Inten    --     19.3705                 1.4840               104.7242

 - Thermochemistry -
 -------------------
 Temperature   298.150 Kelvin.  Pressure   1.00000 Atm.
 Atom     1 has atomic number  6 and mass  12.00000

 Molecular mass:    70.02795 amu.
 Principal axes and moments of inertia in atomic units:
                           1         2         3
     Eigenvalues --   173.12463 176.48367 349.60830
           X            0.85127   0.52473   0.00000
           Y           -0.52473   0.85127   0.00000
           Z            0.00000   0.00000   1.00000
 This molecule is an asymmetric top.
 Rotational symmetry number  1.
 Rotational temperatures (Kelvin)      0.50030     0.49078     0.24775
 Rotational constants (GHZ):          10.42452    10.22611     5.16218
 Zero-point vibrational energy     124018.0 (Joules/Mol)
                                   29.64102 (Kcal/Mol)
 Warning -- explicit consideration of   1 degrees of freedom as
           vibrations may cause significant error
 Vibrational temperatures:    794.98   986.36  1049.79  1245.93  1391.47
          (Kelvin)           1454.58  1524.72  1555.91  1653.86  1841.22
                             1907.97  2141.54  2199.26  4769.85  5314.41

 Zero-point correction=                           0.047236 (Hartree/Particle)
 Thermal correction to Energy=                    0.050723
 Thermal correction to Enthalpy=                  0.051667
 Thermal correction to Gibbs Free Energy=         0.021117
 Sum of electronic and zero-point Energies=           -257.572063
 Sum of electronic and thermal Energies=              -257.568576
 Sum of electronic and thermal Enthalpies=            -257.567632
 Sum of electronic and thermal Free Energies=         -257.598182

                     E (Thermal)             CV                S
                      KCal/Mol        Cal/Mol-Kelvin    Cal/Mol-Kelvin
 Total                   31.829             11.347             64.300
 Electronic               0.000              0.000              0.000
 Translational            0.889              2.981             38.656
 Rotational               0.889              2.981             23.883
 Vibrational             30.052              5.386              1.760
 Vibration     1          0.908              1.134              0.539

 Optimization completed.
    -- Stationary point found.
 Normal termination of Gaussian 09 at Wed Dec 18 06:54:26 2013.
