 Gaussian 09, Revision D.01,
 Gaussian 09:  EM64L-G09RevD.01 24-Apr-2013

 -------------------------------
 #CCSD/cc-pVTZ opt=z-matrix freq
 -------------------------------

 ------------------------------------------------------------------
 1H-tetrazole CH2N4 casno=288948 state=1 config=1 method=11 basis=6
 ------------------------------------------------------------------
 Symbolic Z-matrix:
 Charge =  0 Multiplicity = 1

 SCF Done:  E(RHF) =  -256.848466948     A.U. after   14 cycles
 E2 =    -0.9516515969D+00 EUMP2 =    -0.25780011854461D+03
 SCF Done:  E(RHF) =  -256.845449785     A.U. after   12 cycles
 E2 =    -0.9586194410D+00 EUMP2 =    -0.25780406922588D+03
 SCF Done:  E(RHF) =  -256.844985388     A.U. after   10 cycles
 E2 =    -0.9593040491D+00 EUMP2 =    -0.25780428943730D+03
 SCF Done:  E(RHF) =  -256.844974638     A.U. after   11 cycles
 E2 =    -0.9591548099D+00 EUMP2 =    -0.25780412944818D+03
 SCF Done:  E(RHF) =  -256.844899078     A.U. after    9 cycles
 E2 =    -0.9594461990D+00 EUMP2 =    -0.25780434527740D+03
 SCF Done:  E(RHF) =  -256.845070136     A.U. after   10 cycles
 E2 =    -0.9592744428D+00 EUMP2 =    -0.25780434457838D+03
 SCF Done:  E(RHF) =  -256.844939999     A.U. after    9 cycles
 E2 =    -0.9593998242D+00 EUMP2 =    -0.25780433982355D+03
 SCF Done:  E(RHF) =  -256.844953810     A.U. after    9 cycles
 E2 =    -0.9593854603D+00 EUMP2 =    -0.25780433927057D+03
 SCF Done:  E(RHF) =  -256.844941292     A.U. after    7 cycles
 E2 =    -0.9594037359D+00 EUMP2 =    -0.25780434502768D+03
 SCF Done:  E(RHF) =  -256.844961125     A.U. after    9 cycles
 E2 =    -0.9593526490D+00 EUMP2 =    -0.25780431377428D+03
 E2 =    -0.9594086280D+00 EUMP2 =    -0.25780434745013D+03
 E2 =    -0.9593762527D+00 EUMP2 =    -0.25780433043818D+03
 E2 =    -0.9594027244D+00 EUMP2 =    -0.25780434212964D+03
 E2 =    -0.9594085598D+00 EUMP2 =    -0.25780434735512D+03
 Optimization completed.
    -- Stationary point found.
 Normal termination of Gaussian 09 at Wed Nov 27 09:00:17 2013.

 ----------------------------------------------------------------------
 #N Geom=AllCheck Guess=TCheck SCRF=Check GenChk RCCSD(FC)/CC-pVTZ Freq
 ----------------------------------------------------------------------

 Structure from the checkpoint file:  "/tmp/rdj3/g09-17492/Gau-4781.chk"
 ------------------------------------------------------------------
 1H-tetrazole CH2N4 casno=288948 state=1 config=1 method=11 basis=6
 ------------------------------------------------------------------
 Charge =  0 Multiplicity = 1

                         Standard orientation:
 ---------------------------------------------------------------------
 Center     Atomic      Atomic             Coordinates (Angstroms)
 Number     Number       Type             X           Y           Z
 ---------------------------------------------------------------------
      1          6           0        1.061621    0.232342    0.000000
      2          7           0        0.000000    1.051307    0.000000
      3          7           0       -1.113582    0.300415    0.000000
      4          7           0       -0.723445   -0.919316    0.000000
      5          7           0        0.637591   -1.004334    0.000000
      6          1           0        2.084920    0.557338    0.000000
      7          1           0       -0.058596    2.052110    0.000000
 ---------------------------------------------------------------------

 E2 =    -0.9594085790D+00 EUMP2 =    -0.25780434737431D+03
 E2 =    -0.9594574763D+00 EUMP2 =    -0.25780436025224D+03
 E2 =    -0.9593599413D+00 EUMP2 =    -0.25780433121362D+03
 E2 =    -0.9594516247D+00 EUMP2 =    -0.25780436391565D+03
 E2 =    -0.9593655939D+00 EUMP2 =    -0.25780432834296D+03
 E2 =    -0.9594086895D+00 EUMP2 =    -0.25780434713336D+03
 E2 =    -0.9594031429D+00 EUMP2 =    -0.25780435885998D+03
 E2 =    -0.9594141576D+00 EUMP2 =    -0.25780433436202D+03
 E2 =    -0.9592837584D+00 EUMP2 =    -0.25780430140615D+03
 E2 =    -0.9595336631D+00 EUMP2 =    -0.25780439120860D+03
 E2 =    -0.9594086698D+00 EUMP2 =    -0.25780434716851D+03
 E2 =    -0.9594336909D+00 EUMP2 =    -0.25780434075307D+03
 E2 =    -0.9593836184D+00 EUMP2 =    -0.25780435262633D+03
 E2 =    -0.9593301726D+00 EUMP2 =    -0.25780432484575D+03
 E2 =    -0.9594871438D+00 EUMP2 =    -0.25780436764545D+03
 E2 =    -0.9594086491D+00 EUMP2 =    -0.25780434718886D+03
 SCF Done:  E(RHF) =  -256.844928530     A.U. after    6 cycles
 E2 =    -0.9594184408D+00 EUMP2 =    -0.25780434697074D+03
 SCF Done:  E(RHF) =  -256.844947749     A.U. after    7 cycles
 E2 =    -0.9593987764D+00 EUMP2 =    -0.25780434652534D+03
 SCF Done:  E(RHF) =  -256.844935232     A.U. after    6 cycles
 E2 =    -0.9594125331D+00 EUMP2 =    -0.25780434776495D+03
 SCF Done:  E(RHF) =  -256.844942027     A.U. after    7 cycles
 E2 =    -0.9594046790D+00 EUMP2 =    -0.25780434670547D+03
 SCF Done:  E(RHF) =  -256.844938737     A.U. after    6 cycles
 E2 =    -0.9594085997D+00 EUMP2 =    -0.25780434733666D+03
 SCF Done:  E(RHF) =  -256.844940838     A.U. after    6 cycles
 E2 =    -0.9594053685D+00 EUMP2 =    -0.25780434620644D+03
 SCF Done:  E(RHF) =  -256.844936480     A.U. after    6 cycles
 E2 =    -0.9594118681D+00 EUMP2 =    -0.25780434834844D+03
 SCF Done:  E(RHF) =  -256.844915417     A.U. after    7 cycles
 E2 =    -0.9594379497D+00 EUMP2 =    -0.25780435336700D+03
 SCF Done:  E(RHF) =  -256.844960388     A.U. after    7 cycles
 E2 =    -0.9593792308D+00 EUMP2 =    -0.25780433961895D+03
 SCF Done:  E(RHF) =  -256.844938760     A.U. after    5 cycles
 E2 =    -0.9594085964D+00 EUMP2 =    -0.25780434735597D+03

 Alpha  occ. eigenvalues --  -15.67932 -15.66097 -15.64434 -15.60129 -11.33494
 Alpha  occ. eigenvalues --   -1.49633  -1.25522  -1.19668  -0.90664  -0.88953
 Alpha  occ. eigenvalues --   -0.80066  -0.67847  -0.67638  -0.56929  -0.47709
 Alpha  occ. eigenvalues --   -0.47192  -0.45500  -0.41997
 Alpha virt. eigenvalues --    0.11647   0.13431   0.15782   0.17914   0.26965
 Alpha virt. eigenvalues --    0.29500   0.35066   0.41065   0.42373   0.47396
 Alpha virt. eigenvalues --    0.51633   0.55441   0.56396   0.57572   0.59229

 Mulliken charges:
               1
     1  C   -0.075534
     2  N   -0.037316
     3  N   -0.066100
     4  N   -0.070715
     5  N   -0.152550
     6  H    0.185064
     7  H    0.217151
 Sum of Mulliken charges =   0.00000

 Dipole moment (field-independent basis, Debye):
    X=              2.4415    Y=              4.7284    Z=              0.0016  Tot=              5.3216
 Quadrupole moment (field-independent basis, Debye-Ang):
   XX=            -28.9814   YY=            -26.5356   ZZ=            -28.4755
   XY=              1.8881   XZ=             -0.0001   YZ=              0.0038

                      1                      2                      3
                     A"                     A"                     A"
 Frequencies --    574.7794               699.6864               750.5532
 Red. masses --      1.6618                 2.1269                 8.0466
 Frc consts  --      0.3235                 0.6135                 2.6707
 IR Inten    --     85.4559                 5.6226                 8.9052

                      4                      5                      6
                     A"                     A'                     A'
 Frequencies --    905.5477               984.2890              1025.2625
 Red. masses --      1.3647                 5.2644                 7.0052
 Frc consts  --      0.6594                 3.0050                 4.3385
 IR Inten    --     16.6324                 2.5611                 0.7036

                      7                      8                      9
                     A'                     A'                     A'
 Frequencies --   1073.0500              1092.6361              1168.2677
 Red. masses --      5.0349                 2.9190                 1.9004
 Frc consts  --      3.4157                 2.0532                 1.5282
 IR Inten    --     19.5139                26.1429                15.8370

                     10                     11                     12
                     A'                     A'                     A'
 Frequencies --   1299.8009              1346.8767              1501.8886
 Red. masses --      2.4898                 9.5551                 2.9641
 Frc consts  --      2.4784                10.2128                 3.9393
 IR Inten    --      0.3610                16.1968                13.3687

                     13                     14                     15
                     A'                     A'                     A'
 Frequencies --   1550.9630              3322.2991              3720.8137
 Red. masses --      3.6825                 1.1023                 1.0841
 Frc consts  --      5.2191                 7.1684                 8.8432
 IR Inten    --     17.8180                 1.2861               110.9738

 - Thermochemistry -
 -------------------
 Temperature   298.150 Kelvin.  Pressure   1.00000 Atm.
 Atom     1 has atomic number  6 and mass  12.00000

 Molecular mass:    70.02795 amu.
 Principal axes and moments of inertia in atomic units:
                           1         2         3
     Eigenvalues --   169.86362 173.12293 342.98656
           X            0.85701   0.51530   0.00000
           Y           -0.51530   0.85701   0.00000
           Z            0.00000   0.00000   1.00000
 This molecule is an asymmetric top.
 Rotational symmetry number  1.
 Rotational temperatures (Kelvin)      0.50990     0.50030     0.25253
 Rotational constants (GHZ):          10.62465    10.42462     5.26184
 Zero-point vibrational energy     125707.9 (Joules/Mol)
                                   30.04490 (Kcal/Mol)
 Warning -- explicit consideration of   1 degrees of freedom as
           vibrations may cause significant error
 Vibrational temperatures:    826.98  1006.69  1079.88  1302.88  1416.17
          (Kelvin)           1475.12  1543.88  1572.06  1680.87  1870.12
                             1937.85  2160.88  2231.49  4780.04  5353.41

 Zero-point correction=                           0.047880 (Hartree/Particle)
 Thermal correction to Energy=                    0.051320
 Thermal correction to Enthalpy=                  0.052265
 Thermal correction to Gibbs Free Energy=         0.021805
 Sum of electronic and zero-point Energies=           -257.750799
 Sum of electronic and thermal Energies=              -257.747359
 Sum of electronic and thermal Enthalpies=            -257.746414
 Sum of electronic and thermal Free Energies=         -257.776874

                     E (Thermal)             CV                S
                      KCal/Mol        Cal/Mol-Kelvin    Cal/Mol-Kelvin
 Total                   32.204             11.079             64.108
 Electronic               0.000              0.000              0.000
 Translational            0.889              2.981             38.656
 Rotational               0.889              2.981             23.826
 Vibrational             30.427              5.117              1.626
 Vibration     1          0.931              1.086              0.495

 Optimization completed.
    -- Stationary point found.
 Normal termination of Gaussian 09 at Fri Nov 29 22:45:43 2013.
