 Gaussian 09, Revision D.01,
 Gaussian 09:  EM64L-G09RevD.01 24-Apr-2013

 ---------------------------------
 #CCSD(T)/6-31G* opt=z-matrix freq
 ---------------------------------

 ------------------------------------------------------------------
 1H-tetrazole CH2N4 casno=288948 state=1 config=1 method=12 basis=1
 ------------------------------------------------------------------
 Symbolic Z-matrix:
 Charge =  0 Multiplicity = 1

 SCF Done:  E(RHF) =  -256.754076285     A.U. after   15 cycles
 E2 =    -0.7737063668D+00 EUMP2 =    -0.25752778265216D+03
 CCSD(T)= -0.25756980676D+03
 SCF Done:  E(RHF) =  -256.754076214     A.U. after    8 cycles
 E2 =    -0.7737175948D+00 EUMP2 =    -0.25752779380852D+03
 CCSD(T)= -0.25756982039D+03
 SCF Done:  E(RHF) =  -256.754076247     A.U. after    8 cycles
 E2 =    -0.7736951459D+00 EUMP2 =    -0.25752777139281D+03
 CCSD(T)= -0.25756979302D+03
 SCF Done:  E(RHF) =  -256.754076250     A.U. after    8 cycles
 E2 =    -0.7737314522D+00 EUMP2 =    -0.25752780770264D+03
 CCSD(T)= -0.25756983077D+03
 SCF Done:  E(RHF) =  -256.754076203     A.U. after    9 cycles
 E2 =    -0.7736812853D+00 EUMP2 =    -0.25752775748818D+03
 CCSD(T)= -0.25756978263D+03
 SCF Done:  E(RHF) =  -256.754076251     A.U. after    7 cycles
 E2 =    -0.7737249215D+00 EUMP2 =    -0.25752780117219D+03
 CCSD(T)= -0.25756982573D+03
 SCF Done:  E(RHF) =  -256.754076212     A.U. after    8 cycles
 E2 =    -0.7736878297D+00 EUMP2 =    -0.25752776404175D+03
 CCSD(T)= -0.25756978769D+03
 SCF Done:  E(RHF) =  -256.754076240     A.U. after    8 cycles
 E2 =    -0.7737239334D+00 EUMP2 =    -0.25752780017319D+03
 CCSD(T)= -0.25756982547D+03
 SCF Done:  E(RHF) =  -256.754076223     A.U. after    9 cycles
 E2 =    -0.7736888152D+00 EUMP2 =    -0.25752776503808D+03
 CCSD(T)= -0.25756978795D+03
 SCF Done:  E(RHF) =  -256.754076245     A.U. after    8 cycles
 E2 =    -0.7737099151D+00 EUMP2 =    -0.25752778615966D+03
 CCSD(T)= -0.25756981111D+03
 Normal termination of Gaussian 09 at Wed Nov 27 10:13:00 2013.

 ----------------------------------------------------------------------
 #N Geom=AllCheck Guess=TCheck SCRF=Check GenChk RCCSD(T)(FC)/6-31G(d)
 Freq
 ----------------------------------------------------------------------

 Structure from the checkpoint file:  "/tmp/rdj3/g09-15329/Gau-14607.chk"
 ------------------------------------------------------------------
 1H-tetrazole CH2N4 casno=288948 state=1 config=1 method=12 basis=1
 ------------------------------------------------------------------
 Charge =  0 Multiplicity = 1

                         Standard orientation:
 ---------------------------------------------------------------------
 Center     Atomic      Atomic             Coordinates (Angstroms)
 Number     Number       Type             X           Y           Z
 ---------------------------------------------------------------------
      1          6           0        1.072694    0.238780    0.000000
      2          7           0        0.000000    1.060683    0.000000
      3          7           0       -1.130485    0.304966    0.000000
      4          7           0       -0.727855   -0.934436    0.000000
      5          7           0        0.647565   -1.013333    0.000000
      6          1           0        2.103493    0.569259    0.000000
      7          1           0       -0.064233    2.072894    0.000000
 ---------------------------------------------------------------------

 SCF Done:  E(RHF) =  -256.745004432     A.U. after   11 cycles
 CCSD(T)= -0.25757715176D+03
 SCF Done:  E(RHF) =  -256.745858123     A.U. after   11 cycles
 E2 =    -0.7894031061D+00 EUMP2 =    -0.25753526122910D+03
 CCSD(T)= -0.25757714780D+03
 SCF Done:  E(RHF) =  -256.745118293     A.U. after   11 cycles
 E2 =    -0.7901373469D+00 EUMP2 =    -0.25753525563998D+03
 CCSD(T)= -0.25757716553D+03
 SCF Done:  E(RHF) =  -256.745767746     A.U. after   11 cycles
 E2 =    -0.7895044344D+00 EUMP2 =    -0.25753527218021D+03
 CCSD(T)= -0.25757716076D+03
 SCF Done:  E(RHF) =  -256.745498189     A.U. after   10 cycles
 E2 =    -0.7898296934D+00 EUMP2 =    -0.25753532788241D+03
 CCSD(T)= -0.25757722732D+03
 SCF Done:  E(RHF) =  -256.745512651     A.U. after   10 cycles
 E2 =    -0.7898205065D+00 EUMP2 =    -0.25753533315783D+03
 CCSD(T)= -0.25757723353D+03
 SCF Done:  E(RHF) =  -256.745505821     A.U. after   10 cycles
 E2 =    -0.7898261375D+00 EUMP2 =    -0.25753533195857D+03
 CCSD(T)= -0.25757723138D+03
 SCF Done:  E(RHF) =  -256.745496542     A.U. after   10 cycles
 E2 =    -0.7898261331D+00 EUMP2 =    -0.25753532267505D+03
 CCSD(T)= -0.25757722237D+03
 SCF Done:  E(RHF) =  -256.745500598     A.U. after   11 cycles
 E2 =    -0.7898244692D+00 EUMP2 =    -0.25753532506717D+03
 CCSD(T)= -0.25757722513D+03
 SCF Done:  E(RHF) =  -256.745524006     A.U. after   10 cycles
 E2 =    -0.7898190944D+00 EUMP2 =    -0.25753534310042D+03
 CCSD(T)= -0.25757724263D+03

 Alpha  occ. eigenvalues --  -15.69041 -15.67249 -15.65509 -15.61167 -11.34559
 Alpha  occ. eigenvalues --   -1.48318  -1.24960  -1.19114  -0.90343  -0.88505
 Alpha  occ. eigenvalues --   -0.79541  -0.67218  -0.66846  -0.56625  -0.47748
 Alpha  occ. eigenvalues --   -0.47307  -0.45096  -0.41595
 Alpha virt. eigenvalues --    0.13516   0.18384   0.19573   0.24899   0.36432
 Alpha virt. eigenvalues --    0.37293   0.46883   0.49622   0.63697   0.73473
 Alpha virt. eigenvalues --    0.73998   0.82314   0.82402   0.89089   0.91407

 Mulliken charges:
               1
     1  C    0.307083
     2  N   -0.551577
     3  N   -0.027143
     4  N   -0.064881
     5  N   -0.358544
     6  H    0.260421
     7  H    0.434641
 Sum of Mulliken charges =   0.00000

 Dipole moment (field-independent basis, Debye):
    X=              2.7281    Y=              5.0174    Z=              0.0268  Tot=              5.7111
 Quadrupole moment (field-independent basis, Debye-Ang):
   XX=            -28.6697   YY=            -26.5222   ZZ=            -28.9550
   XY=              2.1316   XZ=              0.0195   YZ=              0.0493

                      1                      2                      3
                     A"                     A"                     A"
 Frequencies --    543.9334               680.9580               722.7342
 Red. masses --      1.8310                 2.0609                 7.4262
 Frc consts  --      0.3192                 0.5631                 2.2855
 IR Inten    --      0.0000                 0.0000                 0.0000

                      4                      5                      6
                     A"                     A'                     A'
 Frequencies --    830.8819               958.4102              1005.1129
 Red. masses --      1.3097                 5.5813                 6.6787
 Frc consts  --      0.5327                 3.0206                 3.9753
 IR Inten    --      0.0000                 0.0000                 0.0000

                      7                      8                      9
                     A'                     A'                     A'
 Frequencies --   1052.0455              1067.4680              1159.6174
 Red. masses --      6.0527                 3.3388                 1.7442
 Frc consts  --      3.9470                 2.2416                 1.3819
 IR Inten    --      0.0000                 0.0000                 0.0000

                     10                     11                     12
                     A'                     A'                     A'
 Frequencies --   1272.6470              1280.4263              1480.8375
 Red. masses --      2.4627                 9.7558                 2.9462
 Frc consts  --      2.3501                 9.4237                 3.8065
 IR Inten    --      0.0000                 0.0000                 0.0000

                     13                     14                     15
                     A'                     A'                     A'
 Frequencies --   1515.0084              3307.3666              3651.7047
 Red. masses --      3.3361                 1.1012                 1.0841
 Frc consts  --      4.5114                 7.0969                 8.5173
 IR Inten    --      0.0000                 0.0000                 0.0000

 - Thermochemistry -
 -------------------
 Temperature   298.150 Kelvin.  Pressure   1.00000 Atm.
 Atom     1 has atomic number  6 and mass  12.00000

 Molecular mass:    70.02795 amu.
 Principal axes and moments of inertia in atomic units:
                           1         2         3
     Eigenvalues --   173.77998 177.27289 351.05287
           X            0.86739   0.49763   0.00000
           Y           -0.49763   0.86739   0.00000
           Z            0.00000   0.00000   1.00000
 This molecule is an asymmetric top.
 Rotational symmetry number  1.
 Rotational temperatures (Kelvin)      0.49841     0.48859     0.24673
 Rotational constants (GHZ):          10.38521    10.18058     5.14094
 Zero-point vibrational energy     122791.6 (Joules/Mol)
                                   29.34790 (Kcal/Mol)
 Warning -- explicit consideration of   1 degrees of freedom as
           vibrations may cause significant error
 Vibrational temperatures:    782.60   979.75  1039.85  1195.45  1378.94
          (Kelvin)           1446.13  1513.66  1535.85  1668.43  1831.05
                             1842.25  2130.59  2179.76  4758.56  5253.98

 Zero-point correction=                           0.046769 (Hartree/Particle)
 Thermal correction to Energy=                    0.050281
 Thermal correction to Enthalpy=                  0.051226
 Thermal correction to Gibbs Free Energy=         0.020635
 Sum of electronic and zero-point Energies=           -257.530480
 Sum of electronic and thermal Energies=              -257.526967
 Sum of electronic and thermal Enthalpies=            -257.526023
 Sum of electronic and thermal Free Energies=         -257.556614

                     E (Thermal)             CV                S
                      KCal/Mol        Cal/Mol-Kelvin    Cal/Mol-Kelvin
 Total                   31.552             11.501             64.384
 Electronic               0.000              0.000              0.000
 Translational            0.889              2.981             38.656
 Rotational               0.889              2.981             23.896
 Vibrational             29.775              5.540              1.832
 Vibration     1          0.899              1.153              0.557

 404\CCSD=-257.5411308\CCSD(T)=-257.5772487\RMSD=9.750e-09\RMSF=1.436e-
 Normal termination of Gaussian 09 at Wed Nov 27 14:46:27 2013.
