 Gaussian 09, Revision D.01,
 Gaussian 09:  EM64L-G09RevD.01 24-Apr-2013

 -------------------------------
 #BLYP/cc-pVDZ opt=z-matrix freq
 -------------------------------

 ------------------------------------------------------------------
 1H-tetrazole CH2N4 casno=288948 state=1 config=1 method=13 basis=5
 ------------------------------------------------------------------
 Symbolic Z-matrix:
 Charge =  0 Multiplicity = 1

 SCF Done:  E(RB-LYP) =  -258.206698589     A.U. after   15 cycles
 SCF Done:  E(RB-LYP) =  -258.217568211     A.U. after   13 cycles
 SCF Done:  E(RB-LYP) =  -258.217881333     A.U. after   13 cycles
 SCF Done:  E(RB-LYP) =  -258.217320103     A.U. after   13 cycles
 SCF Done:  E(RB-LYP) =  -258.217924143     A.U. after   11 cycles
 SCF Done:  E(RB-LYP) =  -258.217937368     A.U. after    9 cycles
 SCF Done:  E(RB-LYP) =  -258.217768945     A.U. after   12 cycles
 SCF Done:  E(RB-LYP) =  -258.217941443     A.U. after    9 cycles
 SCF Done:  E(RB-LYP) =  -258.217941753     A.U. after    9 cycles
 SCF Done:  E(RB-LYP) =  -258.217942648     A.U. after    8 cycles
 SCF Done:  E(RB-LYP) =  -258.217828122     A.U. after   12 cycles
 SCF Done:  E(RB-LYP) =  -258.217942658     A.U. after    8 cycles
 SCF Done:  E(RB-LYP) =  -258.217942695     A.U. after    8 cycles
 Optimization completed.
    -- Stationary point found.
 Normal termination of Gaussian 09 at Mon Nov 25 17:05:09 2013.

 ------------------------------------------------------------------
 #N Geom=AllCheck Guess=TCheck SCRF=Check GenChk RBLYP/CC-pVDZ Freq
 ------------------------------------------------------------------

 Structure from the checkpoint file:  "/tmp/rdj3/g09-16833/Gau-29755.chk"
 ------------------------------------------------------------------
 1H-tetrazole CH2N4 casno=288948 state=1 config=1 method=13 basis=5
 ------------------------------------------------------------------
 Charge =  0 Multiplicity = 1

                         Standard orientation:
 ---------------------------------------------------------------------
 Center     Atomic      Atomic             Coordinates (Angstroms)
 Number     Number       Type             X           Y           Z
 ---------------------------------------------------------------------
      1          6           0        1.079656    0.239256    0.000000
      2          7           0        0.000000    1.069953    0.000000
      3          7           0       -1.140421    0.304206    0.000000
      4          7           0       -0.732420   -0.939293    0.000000
      5          7           0        0.652909   -1.020995    0.000000
      6          1           0        2.119795    0.576322    0.000000
      7          1           0       -0.058211    2.091046    0.000000
 ---------------------------------------------------------------------

 SCF Done:  E(RB-LYP) =  -258.217942695     A.U. after    1 cycles

 The electronic state is 1-A'.
 Alpha  occ. eigenvalues --  -14.12822 -14.09107 -14.07391 -14.04880 -10.01267
 Alpha  occ. eigenvalues --   -1.02533  -0.84730  -0.79997  -0.60313  -0.58919
 Alpha  occ. eigenvalues --   -0.52558  -0.43718  -0.42790  -0.31682  -0.28303
 Alpha  occ. eigenvalues --   -0.26658  -0.24904  -0.23663
 Alpha virt. eigenvalues --   -0.05254  -0.01970   0.00689   0.05048   0.12561
 Alpha virt. eigenvalues --    0.15600   0.22152   0.24502   0.32062   0.37540
 Alpha virt. eigenvalues --    0.41891   0.48512   0.51235   0.52039   0.60912

 Mulliken charges:
               1
     1  C    0.176494
     2  N    0.001064
     3  N   -0.070429
     4  N   -0.087153
     5  N   -0.150930
     6  H    0.028185
     7  H    0.102771
 Sum of Mulliken charges =   0.00000

 Dipole moment (field-independent basis, Debye):
    X=              2.2491    Y=              4.4705    Z=              0.0000  Tot=              5.0044
 Quadrupole moment (field-independent basis, Debye-Ang):
   XX=            -28.7168   YY=            -26.0549   ZZ=            -27.9386
   XY=              1.6719   XZ=              0.0000   YZ=              0.0000

  Exact polarizability:  39.706   1.269  39.130   0.000   0.000  16.204
 Approx polarizability:  87.088   0.618  93.501   0.000   0.000  28.700

                      1                      2                      3
                     A"                     A"                     A"
 Frequencies --    537.6621               662.6216               706.2316
 Red. masses --      1.7285                 2.0601                 7.8903
 Frc consts  --      0.2944                 0.5329                 2.3187
 IR Inten    --     66.3239                 6.1597                 7.2986

                      4                      5                      6
                     A"                     A'                     A'
 Frequencies --    806.3660               890.4642               935.7568
 Red. masses --      1.3541                 6.0481                 4.0936
 Frc consts  --      0.5188                 2.8256                 2.1119
 IR Inten    --     18.4523                 6.4968                 9.5854

                      7                      8                      9
                     A'                     A'                     A'
 Frequencies --    968.1074               999.5787              1092.0041
 Red. masses --      6.6774                 3.1526                 2.1198
 Frc consts  --      3.6873                 1.8559                 1.4894
 IR Inten    --      6.1298                21.3684                17.8771

                     10                     11                     12
                     A'                     A'                     A'
 Frequencies --   1185.4170              1205.0453              1380.6617
 Red. masses --      2.3543                 7.8575                 3.0993
 Frc consts  --      1.9492                 6.7227                 3.4809
 IR Inten    --      9.3871                 4.7688                 7.1689

                     13                     14                     15
                     A'                     A'                     A'
 Frequencies --   1424.6045              3196.0054              3500.6972
 Red. masses --      3.4515                 1.0992                 1.0838
 Frc consts  --      4.1272                 6.6154                 7.8258
 IR Inten    --     11.5668                 0.5477                54.1933

 - Thermochemistry -
 -------------------
 Temperature   298.150 Kelvin.  Pressure   1.00000 Atm.
 Atom     1 has atomic number  6 and mass  12.00000

 Molecular mass:    70.02795 amu.
 Principal axes and moments of inertia in atomic units:
                           1         2         3
     Eigenvalues --   176.30952 179.93820 356.24771
           X            0.87688   0.48070   0.00000
           Y           -0.48070   0.87688   0.00000
           Z            0.00000   0.00000   1.00000
 This molecule is an asymmetric top.
 Rotational symmetry number  1.
 Rotational temperatures (Kelvin)      0.49126     0.48135     0.24313
 Rotational constants (GHZ):          10.23621    10.02978     5.06597
 Zero-point vibrational energy     116583.4 (Joules/Mol)
                                   27.86410 (Kcal/Mol)
 Warning -- explicit consideration of   1 degrees of freedom as
           vibrations may cause significant error
 Vibrational temperatures:    773.57   953.36  1016.11  1160.18  1281.18
          (Kelvin)           1346.34  1392.89  1438.17  1571.15  1705.55
                             1733.79  1986.46  2049.69  4598.33  5036.72

 Zero-point correction=                           0.044404 (Hartree/Particle)
 Thermal correction to Energy=                    0.048006
 Thermal correction to Enthalpy=                  0.048950
 Thermal correction to Gibbs Free Energy=         0.018223
 Sum of electronic and zero-point Energies=           -258.173538
 Sum of electronic and thermal Energies=              -258.169936
 Sum of electronic and thermal Enthalpies=            -258.168992
 Sum of electronic and thermal Free Energies=         -258.199720

                     E (Thermal)             CV                S
                      KCal/Mol        Cal/Mol-Kelvin    Cal/Mol-Kelvin
 Total                   30.124             12.159             64.671
 Electronic               0.000              0.000              0.000
 Translational            0.889              2.981             38.656
 Rotational               0.889              2.981             23.940
 Vibrational             28.347              6.198              2.076
 Vibration     1          0.893              1.167              0.570

 Normal termination of Gaussian 09 at Mon Nov 25 17:05:18 2013.
