 Gaussian 09, Revision D.01,
 Gaussian 09:  EM64L-G09RevD.01 24-Apr-2013

 --------------------------------
 #BLYP/6-31+G** opt=z-matrix freq
 --------------------------------

 ------------------------------------------------------------------
 1H-tetrazole CH2N4 casno=288948 state=1 config=1 method=13 basis=4
 ------------------------------------------------------------------
 Symbolic Z-matrix:
 Charge =  0 Multiplicity = 1

 SCF Done:  E(RB-LYP) =  -258.207013712     A.U. after   12 cycles
 SCF Done:  E(RB-LYP) =  -258.217546504     A.U. after   12 cycles
 SCF Done:  E(RB-LYP) =  -258.217882821     A.U. after   11 cycles
 SCF Done:  E(RB-LYP) =  -258.217453360     A.U. after   11 cycles
 SCF Done:  E(RB-LYP) =  -258.217939468     A.U. after   10 cycles
 SCF Done:  E(RB-LYP) =  -258.217952133     A.U. after    9 cycles
 SCF Done:  E(RB-LYP) =  -258.217077032     A.U. after   11 cycles
 SCF Done:  E(RB-LYP) =  -258.217956089     A.U. after    9 cycles
 SCF Done:  E(RB-LYP) =  -258.217957253     A.U. after    8 cycles
 SCF Done:  E(RB-LYP) =  -258.217548335     A.U. after   11 cycles
 SCF Done:  E(RB-LYP) =  -258.217957237     A.U. after    9 cycles
 SCF Done:  E(RB-LYP) =  -258.217957635     A.U. after    8 cycles
 SCF Done:  E(RB-LYP) =  -258.217957364     A.U. after    8 cycles
 SCF Done:  E(RB-LYP) =  -258.217957651     A.U. after    5 cycles
 SCF Done:  E(RB-LYP) =  -258.217957638     A.U. after    8 cycles
 Optimization completed.
    -- Stationary point found.
 Normal termination of Gaussian 09 at Mon Nov 25 17:04:24 2013.

 ----------------------------------------------------------------------
 #N Geom=AllCheck Guess=TCheck SCRF=Check GenChk RBLYP/6-31+G(d,p) Freq
 ----------------------------------------------------------------------

 Structure from the checkpoint file:  "/tmp/rdj3/g09-16833/Gau-28401.chk"
 ------------------------------------------------------------------
 1H-tetrazole CH2N4 casno=288948 state=1 config=1 method=13 basis=4
 ------------------------------------------------------------------
 Charge =  0 Multiplicity = 1

                         Standard orientation:
 ---------------------------------------------------------------------
 Center     Atomic      Atomic             Coordinates (Angstroms)
 Number     Number       Type             X           Y           Z
 ---------------------------------------------------------------------
      1          6           0        1.080372    0.242850    0.000000
      2          7           0        0.000000    1.069767    0.000000
      3          7           0       -1.141558    0.301644    0.000000
      4          7           0       -0.731213   -0.942320    0.000000
      5          7           0        0.653767   -1.017416    0.000000
      6          1           0        2.114618    0.574369    0.000000
      7          1           0       -0.063819    2.086802    0.000000
 ---------------------------------------------------------------------

 SCF Done:  E(RB-LYP) =  -258.217957638     A.U. after    1 cycles

 The electronic state is 1-A'.
 Alpha  occ. eigenvalues --  -14.15287 -14.11939 -14.10287 -14.07561 -10.03084
 Alpha  occ. eigenvalues --   -1.04280  -0.86433  -0.81728  -0.62021  -0.60573
 Alpha  occ. eigenvalues --   -0.54229  -0.45382  -0.44370  -0.33574  -0.30017
 Alpha  occ. eigenvalues --   -0.28290  -0.26870  -0.25626
 Alpha virt. eigenvalues --   -0.07138  -0.03925  -0.03355   0.00366   0.02831
 Alpha virt. eigenvalues --    0.03949   0.05441   0.06548   0.08705   0.11161
 Alpha virt. eigenvalues --    0.11430   0.12477   0.14309   0.15380   0.15709

 Mulliken charges:
               1
     1  C    0.043128
     2  N   -0.247452
     3  N   -0.019756
     4  N   -0.027349
     5  N   -0.229153
     6  H    0.164588
     7  H    0.315994
 Sum of Mulliken charges =   0.00000

 Dipole moment (field-independent basis, Debye):
    X=              2.5591    Y=              4.8030    Z=              0.0000  Tot=              5.4422
 Quadrupole moment (field-independent basis, Debye-Ang):
   XX=            -29.8517   YY=            -27.2556   ZZ=            -29.1728
   XY=              1.9453   XZ=              0.0000   YZ=              0.0000

  Exact polarizability:  47.185   0.433  46.951   0.000   0.000  25.345
 Approx polarizability:  94.089  -0.343 100.717   0.000   0.000  41.490

                      1                      2                      3
                     A"                     A"                     A"
 Frequencies --    530.4921               657.3005               696.8241
 Red. masses --      1.7829                 1.9878                 8.7276
 Frc consts  --      0.2956                 0.5060                 2.4968
 IR Inten    --     79.4645                 8.9638                 7.0861

                      4                      5                      6
                     A"                     A'                     A'
 Frequencies --    804.6735               890.4369               940.8547
 Red. masses --      1.3306                 6.6802                 4.8359
 Frc consts  --      0.5076                 3.1207                 2.5221
 IR Inten    --     25.6940                 8.2680                12.5394

                      7                      8                      9
                     A'                     A'                     A'
 Frequencies --    964.5889              1004.5606              1100.0629
 Red. masses --      7.7425                 3.6766                 1.9243
 Frc consts  --      4.2444                 2.1860                 1.3720
 IR Inten    --      3.3817                22.1209                17.2856

                     10                     11                     12
                     A'                     A'                     A'
 Frequencies --   1191.1013              1207.7598              1386.1991
 Red. masses --      4.0222                 3.2144                 2.9638
 Frc consts  --      3.3621                 2.7625                 3.3555
 IR Inten    --     15.9200                 0.5353                 9.1869

                     13                     14                     15
                     A'                     A'                     A'
 Frequencies --   1432.3723              3216.9431              3539.4130
 Red. masses --      2.9587                 1.0989                 1.0834
 Frc consts  --      3.5765                 6.7004                 7.9964
 IR Inten    --     15.4990                 1.2151                67.2637

 - Thermochemistry -
 -------------------
 Temperature   298.150 Kelvin.  Pressure   1.00000 Atm.
 Atom     1 has atomic number  6 and mass  12.00000

 Molecular mass:    70.02795 amu.
 Principal axes and moments of inertia in atomic units:
                           1         2         3
     Eigenvalues --   176.47506 179.68880 356.16386
           X            0.91901   0.39424   0.00000
           Y           -0.39424   0.91901   0.00000
           Z            0.00000   0.00000   1.00000
 This molecule is an asymmetric top.
 Rotational symmetry number  1.
 Rotational temperatures (Kelvin)      0.49080     0.48202     0.24319
 Rotational constants (GHZ):          10.22661    10.04370     5.06717
 Zero-point vibrational energy     117016.2 (Joules/Mol)
                                   27.96755 (Kcal/Mol)
 Warning -- explicit consideration of   1 degrees of freedom as
           vibrations may cause significant error
 Vibrational temperatures:    763.26   945.71  1002.57  1157.74  1281.14
          (Kelvin)           1353.68  1387.83  1445.34  1582.74  1713.73
                             1737.69  1994.43  2060.86  4628.46  5092.42

 Zero-point correction=                           0.044569 (Hartree/Particle)
 Thermal correction to Energy=                    0.048180
 Thermal correction to Enthalpy=                  0.049124
 Thermal correction to Gibbs Free Energy=         0.018384
 Sum of electronic and zero-point Energies=           -258.173389
 Sum of electronic and thermal Energies=              -258.169778
 Sum of electronic and thermal Enthalpies=            -258.168834
 Sum of electronic and thermal Free Energies=         -258.199574

                     E (Thermal)             CV                S
                      KCal/Mol        Cal/Mol-Kelvin    Cal/Mol-Kelvin
 Total                   30.233             12.182             64.699
 Electronic               0.000              0.000              0.000
 Translational            0.889              2.981             38.656
 Rotational               0.889              2.981             23.939
 Vibrational             28.456              6.220              2.104
 Vibration     1          0.885              1.183              0.586

 Normal termination of Gaussian 09 at Mon Nov 25 17:04:37 2013.
