 Gaussian 09, Revision D.01,
 Gaussian 09:  EM64L-G09RevD.01 24-Apr-2013

 --------------------
 #BLYP/6-31G opt freq
 --------------------

 ------------------------------------------------------------------
 1H-tetrazole CH2N4 casno=288948 state=1 config=1 method=13 basis=9
 ------------------------------------------------------------------
 Symbolic Z-matrix:
 Charge =  0 Multiplicity = 1

 SCF Done:  E(RB-LYP) =  -258.090036963     A.U. after   17 cycles
 SCF Done:  E(RB-LYP) =  -258.092295421     A.U. after   14 cycles
 SCF Done:  E(RB-LYP) =  -258.093550659     A.U. after   14 cycles
 SCF Done:  E(RB-LYP) =  -258.093721532     A.U. after   11 cycles
 SCF Done:  E(RB-LYP) =  -258.093783352     A.U. after   10 cycles
 SCF Done:  E(RB-LYP) =  -258.093789724     A.U. after   10 cycles
 SCF Done:  E(RB-LYP) =  -258.093791426     A.U. after    9 cycles
 Optimization completed.
    -- Stationary point found.
 Normal termination of Gaussian 09 at Mon Dec 16 14:01:49 2013.

 ----------------------------------------------------------------
 #N Geom=AllCheck Guess=TCheck SCRF=Check GenChk RBLYP/6-31G Freq
 ----------------------------------------------------------------

 Structure from the checkpoint file:  "/tmp/rdj3/g09-9462/Gau-14751.chk"
 ------------------------------------------------------------------
 1H-tetrazole CH2N4 casno=288948 state=1 config=1 method=13 basis=9
 ------------------------------------------------------------------
 Charge =  0 Multiplicity = 1

                         Standard orientation:
 ---------------------------------------------------------------------
 Center     Atomic      Atomic             Coordinates (Angstroms)
 Number     Number       Type             X           Y           Z
 ---------------------------------------------------------------------
      1          6           0        1.093093    0.262751    0.000000
      2          7           0        0.000000    1.089175    0.000000
      3          7           0       -1.176016    0.293328    0.000000
      4          7           0       -0.746784   -0.970235    0.000000
      5          7           0        0.692740   -1.023426    0.000000
      6          1           0        2.121982    0.598508    0.000000
      7          1           0       -0.070119    2.103085    0.000000
 ---------------------------------------------------------------------

 SCF Done:  E(RB-LYP) =  -258.093791426     A.U. after    1 cycles

 The electronic state is 1-A'.
 Alpha  occ. eigenvalues --  -14.14045 -14.11861 -14.10035 -14.07335 -10.02818
 Alpha  occ. eigenvalues --   -1.04209  -0.86034  -0.82659  -0.61602  -0.60273
 Alpha  occ. eigenvalues --   -0.54139  -0.44922  -0.43224  -0.31829  -0.29252
 Alpha  occ. eigenvalues --   -0.27950  -0.25707  -0.24544
 Alpha virt. eigenvalues --   -0.07450  -0.03919   0.01819   0.05032   0.10182
 Alpha virt. eigenvalues --    0.13429   0.18240   0.25858   0.30279   0.47400
 Alpha virt. eigenvalues --    0.48170   0.55734   0.59365   0.60518   0.61743

 Mulliken charges:
               1
     1  C    0.281405
     2  N   -0.477415
     3  N    0.009271
     4  N   -0.091783
     5  N   -0.255228
     6  H    0.191885
     7  H    0.341864
 Sum of Mulliken charges =   0.00000

 Dipole moment (field-independent basis, Debye):
    X=              2.5539    Y=              4.9345    Z=              0.0000  Tot=              5.5562
 Quadrupole moment (field-independent basis, Debye-Ang):
   XX=            -29.6704   YY=            -27.1296   ZZ=            -28.6123
   XY=              1.9911   XZ=              0.0000   YZ=              0.0000

  Exact polarizability:  39.776   1.156  39.700   0.000   0.000  13.967
 Approx polarizability:  90.748  -0.872 100.502   0.000   0.000  21.648

                      1                      2                      3
                     A"                     A"                     A"
 Frequencies --    614.8942               665.5165               673.6206
 Red. masses --      3.6537                 1.4821                 4.0380
 Frc consts  --      0.8139                 0.3868                 1.0796
 IR Inten    --     59.6310                56.7927                31.5955

                      4                      5                      6
                     A'                     A'                     A"
 Frequencies --    718.8829               798.0069               830.9966
 Red. masses --     10.0970                 7.0719                 1.3534
 Frc consts  --      3.0744                 2.6534                 0.5506
 IR Inten    --      9.3506                17.7423                20.8713

                      7                      8                      9
                     A'                     A'                     A'
 Frequencies --    951.9307               982.4322              1073.5195
 Red. masses --      5.5873                 5.5065                 5.3231
 Frc consts  --      2.9831                 3.1313                 3.6144
 IR Inten    --      3.7145                 9.3346                 7.0210

                     10                     11                     12
                     A'                     A'                     A'
 Frequencies --   1115.8763              1178.6393              1341.3603
 Red. masses --      2.1514                 2.5066                 2.6675
 Frc consts  --      1.5783                 2.0516                 2.8277
 IR Inten    --     15.8780                 3.5770                 3.5443

                     13                     14                     15
                     A'                     A'                     A'
 Frequencies --   1405.3056              3265.2560              3572.1978
 Red. masses --      2.0475                 1.0997                 1.0840
 Frc consts  --      2.3824                 6.9082                 8.1495
 IR Inten    --     31.3463                 2.0347                57.9669

 - Thermochemistry -
 -------------------
 Temperature   298.150 Kelvin.  Pressure   1.00000 Atm.
 Atom     1 has atomic number  6 and mass  12.00000

 Molecular mass:    70.02795 amu.
 Principal axes and moments of inertia in atomic units:
                           1         2         3
     Eigenvalues --   182.84349 188.28733 371.13082
           X            0.99726   0.07397   0.00000
           Y           -0.07397   0.99726   0.00000
           Z            0.00000   0.00000   1.00000
 This molecule is an asymmetric top.
 Rotational symmetry number  1.
 Rotational temperatures (Kelvin)      0.47370     0.46001     0.23338
 Rotational constants (GHZ):           9.87042     9.58504     4.86282
 Zero-point vibrational energy     114772.3 (Joules/Mol)
                                   27.43124 (Kcal/Mol)
 Warning -- explicit consideration of   1 degrees of freedom as
           vibrations may cause significant error
 Vibrational temperatures:    884.69   957.53   969.19  1034.31  1148.15
          (Kelvin)           1195.62  1369.61  1413.50  1544.55  1605.50
                             1695.80  1929.92  2021.92  4697.97  5139.59

 Zero-point correction=                           0.043714 (Hartree/Particle)
 Thermal correction to Energy=                    0.047374
 Thermal correction to Enthalpy=                  0.048318
 Thermal correction to Gibbs Free Energy=         0.017465
 Sum of electronic and zero-point Energies=           -258.050077
 Sum of electronic and thermal Energies=              -258.046417
 Sum of electronic and thermal Enthalpies=            -258.045473
 Sum of electronic and thermal Free Energies=         -258.076326

                     E (Thermal)             CV                S
                      KCal/Mol        Cal/Mol-Kelvin    Cal/Mol-Kelvin
 Total                   29.728             12.640             64.935
 Electronic               0.000              0.000              0.000
 Translational            0.889              2.981             38.656
 Rotational               0.889              2.981             24.061
 Vibrational             27.950              6.678              2.218
 Vibration     1          0.974              1.000              0.425

 Optimization completed.
    -- Stationary point found.
 Normal termination of Gaussian 09 at Mon Dec 16 14:01:53 2013.
