 Gaussian 09, Revision D.01,
 Gaussian 09:  EM64L-G09RevD.01 24-Apr-2013

 -------------------------------
 #BLYP/cc-pVTZ opt=z-matrix freq
 -------------------------------

 ------------------------------------------------------------------
 1H-tetrazole CH2N4 casno=288948 state=1 config=1 method=13 basis=6
 ------------------------------------------------------------------
 Symbolic Z-matrix:
 Charge =  0 Multiplicity = 1

 SCF Done:  E(RB-LYP) =  -258.287354202     A.U. after   15 cycles
 SCF Done:  E(RB-LYP) =  -258.294945096     A.U. after   12 cycles
 SCF Done:  E(RB-LYP) =  -258.295189924     A.U. after   12 cycles
 SCF Done:  E(RB-LYP) =  -258.295236383     A.U. after   11 cycles
 SCF Done:  E(RB-LYP) =  -258.291241610     A.U. after   13 cycles
 SCF Done:  E(RB-LYP) =  -258.295278976     A.U. after   10 cycles
 SCF Done:  E(RB-LYP) =  -258.295289517     A.U. after    9 cycles
 SCF Done:  E(RB-LYP) =  -258.294078612     A.U. after   12 cycles
 SCF Done:  E(RB-LYP) =  -258.295292523     A.U. after    9 cycles
 SCF Done:  E(RB-LYP) =  -258.295294258     A.U. after    8 cycles
 SCF Done:  E(RB-LYP) =  -258.295293788     A.U. after    8 cycles
 SCF Done:  E(RB-LYP) =  -258.295294413     A.U. after    4 cycles
 SCF Done:  E(RB-LYP) =  -258.295294188     A.U. after    8 cycles
 SCF Done:  E(RB-LYP) =  -258.295294427     A.U. after    4 cycles
 SCF Done:  E(RB-LYP) =  -258.295294453     A.U. after    7 cycles
 Optimization completed.
    -- Stationary point found.
 Normal termination of Gaussian 09 at Mon Nov 25 17:08:55 2013.

 ------------------------------------------------------------------
 #N Geom=AllCheck Guess=TCheck SCRF=Check GenChk RBLYP/CC-pVTZ Freq
 ------------------------------------------------------------------

 Structure from the checkpoint file:  "/tmp/rdj3/g09-16833/Gau-30956.chk"
 ------------------------------------------------------------------
 1H-tetrazole CH2N4 casno=288948 state=1 config=1 method=13 basis=6
 ------------------------------------------------------------------
 Charge =  0 Multiplicity = 1

                         Standard orientation:
 ---------------------------------------------------------------------
 Center     Atomic      Atomic             Coordinates (Angstroms)
 Number     Number       Type             X           Y           Z
 ---------------------------------------------------------------------
      1          6           0        1.074727    0.240811    0.000000
      2          7           0        0.000000    1.065431    0.000000
      3          7           0       -1.136267    0.298893    0.000000
      4          7           0       -0.730051   -0.937009    0.000000
      5          7           0        0.653422   -1.012492    0.000000
      6          1           0        2.103821    0.573411    0.000000
      7          1           0       -0.061908    2.077964    0.000000
 ---------------------------------------------------------------------

 SCF Done:  E(RB-LYP) =  -258.295294453     A.U. after    1 cycles

 The electronic state is 1-A'.
 Alpha  occ. eigenvalues --  -14.11933 -14.08625 -14.06997 -14.04204 -10.00201
 Alpha  occ. eigenvalues --   -1.03594  -0.85595  -0.81001  -0.61234  -0.59942
 Alpha  occ. eigenvalues --   -0.53701  -0.44731  -0.43990  -0.32915  -0.29394
 Alpha  occ. eigenvalues --   -0.27757  -0.26003  -0.24874
 Alpha virt. eigenvalues --   -0.06239  -0.03051  -0.01023   0.03415   0.10482
 Alpha virt. eigenvalues --    0.11955   0.14400   0.19664   0.23920   0.24430
 Alpha virt. eigenvalues --    0.30522   0.32680   0.35336   0.37652   0.38370

 Mulliken charges:
               1
     1  C    0.000498
     2  N   -0.000202
     3  N   -0.074073
     4  N   -0.072852
     5  N   -0.139223
     6  H    0.121149
     7  H    0.164703
 Sum of Mulliken charges =   0.00000

 Dipole moment (field-independent basis, Debye):
    X=              2.3477    Y=              4.5777    Z=              0.0000  Tot=              5.1446
 Quadrupole moment (field-independent basis, Debye-Ang):
   XX=            -29.1931   YY=            -26.6303   ZZ=            -28.4656
   XY=              1.8126   XZ=              0.0000   YZ=              0.0000

  Exact polarizability:  43.426   0.969  42.997   0.000   0.000  21.168
 Approx polarizability:  91.282   0.602  97.555   0.000   0.000  37.739

                      1                      2                      3
                     A"                     A"                     A"
 Frequencies --    541.3039               665.6081               710.4708
 Red. masses --      1.6322                 2.1066                 8.6679
 Frc consts  --      0.2818                 0.5499                 2.5778
 IR Inten    --     74.0390                 4.5365                 7.2351

                      4                      5                      6
                     A"                     A'                     A'
 Frequencies --    825.4189               873.0852               920.8843
 Red. masses --      1.3748                 8.0164                 5.1501
 Frc consts  --      0.5519                 3.6003                 2.5732
 IR Inten    --     19.7419                 8.8993                13.0621

                      7                      8                      9
                     A'                     A'                     A'
 Frequencies --    968.3458              1006.9480              1100.2884
 Red. masses --      5.8782                 3.4663                 2.1083
 Frc consts  --      3.2476                 2.0708                 1.5038
 IR Inten    --      2.4334                19.2303                18.6465

                     10                     11                     12
                     A'                     A'                     A'
 Frequencies --   1188.0878              1207.4836              1381.2595
 Red. masses --      3.6694                 3.3688                 2.8392
 Frc consts  --      3.0517                 2.8939                 3.1916
 IR Inten    --     13.1924                 0.5560                 7.5369

                     13                     14                     15
                     A'                     A'                     A'
 Frequencies --   1431.9096              3196.9151              3529.9501
 Red. masses --      2.9544                 1.0987                 1.0829
 Frc consts  --      3.5690                 6.6161                 7.9502
 IR Inten    --     13.8180                 0.4571                58.4902

 - Thermochemistry -
 -------------------
 Temperature   298.150 Kelvin.  Pressure   1.00000 Atm.
 Atom     1 has atomic number  6 and mass  12.00000

 Molecular mass:    70.02795 amu.
 Principal axes and moments of inertia in atomic units:
                           1         2         3
     Eigenvalues --   174.80255 178.24637 353.04892
           X            0.93216   0.36204   0.00000
           Y           -0.36204   0.93216   0.00000
           Z            0.00000   0.00000   1.00000
 This molecule is an asymmetric top.
 Rotational symmetry number  1.
 Rotational temperatures (Kelvin)      0.49550     0.48592     0.24533
 Rotational constants (GHZ):          10.32446    10.12498     5.11187
 Zero-point vibrational energy     116922.8 (Joules/Mol)
                                   27.94521 (Kcal/Mol)
 Warning -- explicit consideration of   1 degrees of freedom as
           vibrations may cause significant error
 Vibrational temperatures:    778.81   957.66  1022.21  1187.59  1256.17
          (Kelvin)           1324.95  1393.23  1448.77  1583.07  1709.39
                             1737.30  1987.32  2060.20  4599.64  5078.80

 Zero-point correction=                           0.044534 (Hartree/Particle)
 Thermal correction to Energy=                    0.048129
 Thermal correction to Enthalpy=                  0.049073
 Thermal correction to Gibbs Free Energy=         0.018368
 Sum of electronic and zero-point Energies=           -258.250761
 Sum of electronic and thermal Energies=              -258.247165
 Sum of electronic and thermal Enthalpies=            -258.246221
 Sum of electronic and thermal Free Energies=         -258.276926

                     E (Thermal)             CV                S
                      KCal/Mol        Cal/Mol-Kelvin    Cal/Mol-Kelvin
 Total                   30.201             12.129             64.624
 Electronic               0.000              0.000              0.000
 Translational            0.889              2.981             38.656
 Rotational               0.889              2.981             23.913
 Vibrational             28.424              6.167              2.056
 Vibration     1          0.896              1.159              0.562

 Normal termination of Gaussian 09 at Mon Nov 25 17:10:07 2013.
