 Gaussian 09, Revision D.01,
 Gaussian 09:  EM64L-G09RevD.01 24-Apr-2013

 -----------------------------
 #BLYP/3-21G opt=z-matrix freq
 -----------------------------

 ------------------------------------------------------------------
 1H-tetrazole CH2N4 casno=288948 state=1 config=1 method=13 basis=2
 ------------------------------------------------------------------
 Symbolic Z-matrix:
 Charge =  0 Multiplicity = 1

 SCF Done:  E(RB-LYP) =  -256.708307142     A.U. after   15 cycles
 SCF Done:  E(RB-LYP) =  -256.738285828     A.U. after   16 cycles
 SCF Done:  E(RB-LYP) =  -256.741384622     A.U. after   15 cycles
 SCF Done:  E(RB-LYP) =  -256.740387021     A.U. after   14 cycles
 SCF Done:  E(RB-LYP) =  -256.741993514     A.U. after   12 cycles
 SCF Done:  E(RB-LYP) =  -256.742102471     A.U. after   10 cycles
 SCF Done:  E(RB-LYP) =  -256.741565510     A.U. after   15 cycles
 SCF Done:  E(RB-LYP) =  -256.742131534     A.U. after   12 cycles
 SCF Done:  E(RB-LYP) =  -256.742144281     A.U. after    9 cycles
 SCF Done:  E(RB-LYP) =  -256.742046201     A.U. after   13 cycles
 SCF Done:  E(RB-LYP) =  -256.742150866     A.U. after    9 cycles
 SCF Done:  E(RB-LYP) =  -256.742154077     A.U. after    9 cycles
 SCF Done:  E(RB-LYP) =  -256.742154783     A.U. after    9 cycles
 SCF Done:  E(RB-LYP) =  -256.742122930     A.U. after   13 cycles
 SCF Done:  E(RB-LYP) =  -256.737513409     A.U. after   16 cycles
 SCF Done:  E(RB-LYP) =  -256.742155028     A.U. after    9 cycles
 SCF Done:  E(RB-LYP) =  -256.742029293     A.U. after   13 cycles
 SCF Done:  E(RB-LYP) =  -256.742155022     A.U. after    8 cycles
 Optimization completed.
    -- Stationary point found.
 Normal termination of Gaussian 09 at Mon Nov 25 17:01:39 2013.

 ----------------------------------------------------------------
 #N Geom=AllCheck Guess=TCheck SCRF=Check GenChk RBLYP/3-21G Freq
 ----------------------------------------------------------------

 Structure from the checkpoint file:  "/tmp/rdj3/g09-16833/Gau-23946.chk"
 ------------------------------------------------------------------
 1H-tetrazole CH2N4 casno=288948 state=1 config=1 method=13 basis=2
 ------------------------------------------------------------------
 Charge =  0 Multiplicity = 1

                         Standard orientation:
 ---------------------------------------------------------------------
 Center     Atomic      Atomic             Coordinates (Angstroms)
 Number     Number       Type             X           Y           Z
 ---------------------------------------------------------------------
      1          6           0        1.088708    0.268042    0.000000
      2          7           0        0.000000    1.100722    0.000000
      3          7           0       -1.196452    0.287367    0.000000
      4          7           0       -0.753547   -0.985967    0.000000
      5          7           0        0.724970   -1.023573    0.000000
      6          1           0        2.111644    0.620892    0.000000
      7          1           0       -0.068697    2.121018    0.000000
 ---------------------------------------------------------------------

 SCF Done:  E(RB-LYP) =  -256.742155022     A.U. after    2 cycles

 The electronic state is 1-A'.
 Alpha  occ. eigenvalues --  -14.05413 -14.02787 -14.00999 -13.97990  -9.96123
 Alpha  occ. eigenvalues --   -1.01641  -0.84091  -0.81475  -0.59840  -0.59060
 Alpha  occ. eigenvalues --   -0.53187  -0.43355  -0.41420  -0.30623  -0.27679
 Alpha  occ. eigenvalues --   -0.26534  -0.24800  -0.23409
 Alpha virt. eigenvalues --   -0.06234  -0.02403   0.03825   0.05273   0.12130
 Alpha virt. eigenvalues --    0.14492   0.19918   0.30165   0.32065   0.61088
 Alpha virt. eigenvalues --    0.64489   0.74864   0.78365   0.85387   0.94916

 Mulliken charges:
               1
     1  C    0.303684
     2  N   -0.470340
     3  N   -0.035653
     4  N   -0.075925
     5  N   -0.307722
     6  H    0.245476
     7  H    0.340480
 Sum of Mulliken charges =   0.00000

 Dipole moment (field-independent basis, Debye):
    X=              2.2769    Y=              4.6907    Z=              0.0000  Tot=              5.2141
 Quadrupole moment (field-independent basis, Debye-Ang):
   XX=            -28.9286   YY=            -26.2377   ZZ=            -28.5009
   XY=              1.9331   XZ=              0.0000   YZ=              0.0000

  Exact polarizability:  36.806   1.347  36.771   0.000   0.000  11.434
 Approx polarizability:  89.407  -1.543 102.132   0.000   0.000  17.944

                      1                      2                      3
                     A"                     A"                     A"
 Frequencies --    559.7959               637.3563               647.3500
 Red. masses --      2.0115                 1.7209                 8.0273
 Frc consts  --      0.3714                 0.4119                 1.9820
 IR Inten    --    105.3940                32.6792                 2.6454

                      4                      5                      6
                     A'                     A'                     A"
 Frequencies --    681.9237               755.1202               862.2481
 Red. masses --     10.7671                 6.8401                 1.3615
 Frc consts  --      2.9500                 2.2980                 0.5964
 IR Inten    --      9.8825                14.3110                19.8244

                      7                      8                      9
                     A'                     A'                     A'
 Frequencies --    921.6307               961.2816               997.4489
 Red. masses --      4.4250                 7.2483                10.7674
 Frc consts  --      2.2145                 3.9463                 6.3116
 IR Inten    --      6.4487                 7.0287                 0.2992

                     10                     11                     12
                     A'                     A'                     A'
 Frequencies --   1091.4832              1157.0541              1295.5574
 Red. masses --      2.0978                 2.2122                 2.4375
 Frc consts  --      1.4725                 1.7449                 2.4105
 IR Inten    --     12.2668                 8.8349                 4.1933

                     13                     14                     15
                     A'                     A'                     A'
 Frequencies --   1364.2795              3228.5453              3450.5863
 Red. masses --      2.0806                 1.0972                 1.0844
 Frc consts  --      2.2816                 6.7384                 7.6073
 IR Inten    --     33.3116                 0.7749                52.8319

 - Thermochemistry -
 -------------------
 Temperature   298.150 Kelvin.  Pressure   1.00000 Atm.
 Atom     1 has atomic number  6 and mass  12.00000

 Molecular mass:    70.02795 amu.
 Principal axes and moments of inertia in atomic units:
                           1         2         3
     Eigenvalues --   185.92262 192.98428 378.90691
           X            0.99459   0.10391   0.00000
           Y           -0.10391   0.99459   0.00000
           Z            0.00000   0.00000   1.00000
 This molecule is an asymmetric top.
 Rotational symmetry number  1.
 Rotational temperatures (Kelvin)      0.46586     0.44881     0.22859
 Rotational constants (GHZ):           9.70695     9.35175     4.76302
 Zero-point vibrational energy     111322.5 (Joules/Mol)
                                   26.60671 (Kcal/Mol)
 Warning -- explicit consideration of   1 degrees of freedom as
           vibrations may cause significant error
 Vibrational temperatures:    805.42   917.01   931.39   981.13  1086.45
          (Kelvin)           1240.58  1326.02  1383.07  1435.10  1570.40
                             1664.74  1864.02  1962.89  4645.15  4964.62

 Zero-point correction=                           0.042400 (Hartree/Particle)
 Thermal correction to Energy=                    0.046163
 Thermal correction to Enthalpy=                  0.047107
 Thermal correction to Gibbs Free Energy=         0.016081
 Sum of electronic and zero-point Energies=           -256.699755
 Sum of electronic and thermal Energies=              -256.695992
 Sum of electronic and thermal Enthalpies=            -256.695048
 Sum of electronic and thermal Free Energies=         -256.726074

                     E (Thermal)             CV                S
                      KCal/Mol        Cal/Mol-Kelvin    Cal/Mol-Kelvin
 Total                   28.968             13.177             65.300
 Electronic               0.000              0.000              0.000
 Translational            0.889              2.981             38.656
 Rotational               0.889              2.981             24.123
 Vibrational             27.190              7.215              2.521
 Vibration     1          0.915              1.118              0.524

 Normal termination of Gaussian 09 at Mon Nov 25 17:01:43 2013.
