 Gaussian 09, Revision D.01,
 Gaussian 09:  EM64L-G09RevD.01 24-Apr-2013

 -------------------------------
 #BLYP/6-31G** opt=z-matrix freq
 -------------------------------

 ------------------------------------------------------------------
 1H-tetrazole CH2N4 casno=288948 state=1 config=1 method=13 basis=3
 ------------------------------------------------------------------
 Symbolic Z-matrix:
 Charge =  0 Multiplicity = 1

 SCF Done:  E(RB-LYP) =  -258.192264440     A.U. after   15 cycles
 SCF Done:  E(RB-LYP) =  -258.202828747     A.U. after   14 cycles
 SCF Done:  E(RB-LYP) =  -258.203174379     A.U. after   13 cycles
 SCF Done:  E(RB-LYP) =  -258.202880558     A.U. after   13 cycles
 SCF Done:  E(RB-LYP) =  -258.203211185     A.U. after   11 cycles
 SCF Done:  E(RB-LYP) =  -258.203220186     A.U. after    9 cycles
 SCF Done:  E(RB-LYP) =  -258.202166014     A.U. after   14 cycles
 SCF Done:  E(RB-LYP) =  -258.203223154     A.U. after   10 cycles
 SCF Done:  E(RB-LYP) =  -258.203223984     A.U. after    8 cycles
 SCF Done:  E(RB-LYP) =  -258.202645524     A.U. after   13 cycles
 SCF Done:  E(RB-LYP) =  -258.203224128     A.U. after    9 cycles
 SCF Done:  E(RB-LYP) =  -258.203224238     A.U. after    8 cycles
 Optimization completed.
    -- Stationary point found.
 Normal termination of Gaussian 09 at Mon Nov 25 17:03:28 2013.

 ---------------------------------------------------------------------
 #N Geom=AllCheck Guess=TCheck SCRF=Check GenChk RBLYP/6-31G(d,p) Freq
 ---------------------------------------------------------------------

 Structure from the checkpoint file:  "/tmp/rdj3/g09-16833/Gau-27279.chk"
 ------------------------------------------------------------------
 1H-tetrazole CH2N4 casno=288948 state=1 config=1 method=13 basis=3
 ------------------------------------------------------------------
 Charge =  0 Multiplicity = 1

                         Standard orientation:
 ---------------------------------------------------------------------
 Center     Atomic      Atomic             Coordinates (Angstroms)
 Number     Number       Type             X           Y           Z
 ---------------------------------------------------------------------
      1          6           0        1.079251    0.242032    0.000000
      2          7           0        0.000000    1.069279    0.000000
      3          7           0       -1.142625    0.302063    0.000000
      4          7           0       -0.731136   -0.941450    0.000000
      5          7           0        0.655767   -1.017824    0.000000
      6          1           0        2.112173    0.577618    0.000000
      7          1           0       -0.061715    2.085719    0.000000
 ---------------------------------------------------------------------

 SCF Done:  E(RB-LYP) =  -258.203224238     A.U. after    1 cycles

 The electronic state is 1-A'.
 Alpha  occ. eigenvalues --  -14.13813 -14.10196 -14.08489 -14.05740 -10.01719
 Alpha  occ. eigenvalues --   -1.02559  -0.84829  -0.80141  -0.60567  -0.59055
 Alpha  occ. eigenvalues --   -0.52848  -0.43973  -0.42851  -0.31916  -0.28409
 Alpha  occ. eigenvalues --   -0.26756  -0.25147  -0.23887
 Alpha virt. eigenvalues --   -0.05381  -0.01995   0.02549   0.07341   0.13004
 Alpha virt. eigenvalues --    0.16105   0.22586   0.28226   0.34122   0.46411
 Alpha virt. eigenvalues --    0.47964   0.54333   0.56110   0.57788   0.61356

 Mulliken charges:
               1
     1  C    0.317593
     2  N   -0.302254
     3  N   -0.054000
     4  N   -0.082957
     5  N   -0.289021
     6  H    0.134916
     7  H    0.275724
 Sum of Mulliken charges =   0.00000

 Dipole moment (field-independent basis, Debye):
    X=              2.3710    Y=              4.5864    Z=              0.0000  Tot=              5.1630
 Quadrupole moment (field-independent basis, Debye-Ang):
   XX=            -28.6626   YY=            -26.0497   ZZ=            -28.1348
   XY=              1.7413   XZ=              0.0000   YZ=              0.0000

  Exact polarizability:  39.366   1.128  39.152   0.000   0.000  15.793
 Approx polarizability:  86.397   0.134  93.269   0.000   0.000  28.036

                      1                      2                      3
                     A"                     A"                     A"
 Frequencies --    532.0935               661.6382               702.7073
 Red. masses --      1.7432                 2.0543                 8.3586
 Frc consts  --      0.2908                 0.5299                 2.4318
 IR Inten    --     78.4953                 7.8900                 7.2518

                      4                      5                      6
                     A"                     A'                     A'
 Frequencies --    805.5410               890.3509               936.6798
 Red. masses --      1.3331                 6.7580                 4.6387
 Frc consts  --      0.5097                 3.1564                 2.3979
 IR Inten    --     18.7570                 7.1753                 9.8812

                      7                      8                      9
                     A'                     A'                     A'
 Frequencies --    968.0974              1005.8506              1104.9101
 Red. masses --      7.6142                 3.5355                 1.9610
 Frc consts  --      4.2045                 2.1075                 1.4106
 IR Inten    --      4.8352                21.7906                16.5374

                     10                     11                     12
                     A'                     A'                     A'
 Frequencies --   1193.6744              1210.1108              1392.5921
 Red. masses --      3.8159                 3.3685                 2.9570
 Frc consts  --      3.2034                 2.9063                 3.3787
 IR Inten    --     14.9504                 0.6546                 8.4327

                     13                     14                     15
                     A'                     A'                     A'
 Frequencies --   1436.5741              3214.9309              3540.4791
 Red. masses --      3.0569                 1.0985                 1.0830
 Frc consts  --      3.7170                 6.6896                 7.9987
 IR Inten    --     15.0464                 0.3086                54.0594

 - Thermochemistry -
 -------------------
 Temperature   298.150 Kelvin.  Pressure   1.00000 Atm.
 Atom     1 has atomic number  6 and mass  12.00000

 Molecular mass:    70.02795 amu.
 Principal axes and moments of inertia in atomic units:
                           1         2         3
     Eigenvalues --   176.25729 179.91176 356.16905
           X            0.91168   0.41089   0.00000
           Y           -0.41089   0.91168   0.00000
           Z            0.00000   0.00000   1.00000
 This molecule is an asymmetric top.
 Rotational symmetry number  1.
 Rotational temperatures (Kelvin)      0.49141     0.48142     0.24318
 Rotational constants (GHZ):          10.23924    10.03126     5.06709
 Zero-point vibrational energy     117211.5 (Joules/Mol)
                                   28.01422 (Kcal/Mol)
 Warning -- explicit consideration of   1 degrees of freedom as
           vibrations may cause significant error
 Vibrational temperatures:    765.56   951.95  1011.04  1158.99  1281.01
          (Kelvin)           1347.67  1392.87  1447.19  1589.72  1717.43
                             1741.08  2003.63  2066.91  4625.56  5093.95

 Zero-point correction=                           0.044643 (Hartree/Particle)
 Thermal correction to Energy=                    0.048247
 Thermal correction to Enthalpy=                  0.049192
 Thermal correction to Gibbs Free Energy=         0.018461
 Sum of electronic and zero-point Energies=           -258.158581
 Sum of electronic and thermal Energies=              -258.154977
 Sum of electronic and thermal Enthalpies=            -258.154033
 Sum of electronic and thermal Free Energies=         -258.184764

                     E (Thermal)             CV                S
                      KCal/Mol        Cal/Mol-Kelvin    Cal/Mol-Kelvin
 Total                   30.276             12.145             64.679
 Electronic               0.000              0.000              0.000
 Translational            0.889              2.981             38.656
 Rotational               0.889              2.981             23.939
 Vibrational             28.498              6.184              2.084
 Vibration     1          0.887              1.179              0.583

 Normal termination of Gaussian 09 at Mon Nov 25 17:03:37 2013.
