 Gaussian 09, Revision D.01,
 Gaussian 09:  EM64L-G09RevD.01 24-Apr-2013

 ------------------------------------
 #BLYP/6-31G(2df,p) opt=z-matrix freq
 ------------------------------------

 -------------------------------------------------------------------
 1H-tetrazole CH2N4 casno=288948 state=1 config=1 method=13 basis=19
 -------------------------------------------------------------------
 Symbolic Z-matrix:
 Charge =  0 Multiplicity = 1

 SCF Done:  E(RB-LYP) =  -258.213212559     A.U. after   15 cycles
 SCF Done:  E(RB-LYP) =  -258.213208020     A.U. after   11 cycles
 SCF Done:  E(RB-LYP) =  -258.213219059     A.U. after    9 cycles
 SCF Done:  E(RB-LYP) =  -258.213214769     A.U. after   10 cycles
 SCF Done:  E(RB-LYP) =  -258.213219357     A.U. after    8 cycles
 SCF Done:  E(RB-LYP) =  -258.213231349     A.U. after    9 cycles
 SCF Done:  E(RB-LYP) =  -258.213231819     A.U. after    9 cycles
 SCF Done:  E(RB-LYP) =  -258.213234150     A.U. after    8 cycles
 SCF Done:  E(RB-LYP) =  -258.213234162     A.U. after   10 cycles
 SCF Done:  E(RB-LYP) =  -258.213235659     A.U. after    8 cycles
 SCF Done:  E(RB-LYP) =  -258.213236874     A.U. after    4 cycles
 SCF Done:  E(RB-LYP) =  -258.213236710     A.U. after    8 cycles
 SCF Done:  E(RB-LYP) =  -258.213236918     A.U. after    7 cycles
 SCF Done:  E(RB-LYP) =  -258.213231338     A.U. after   10 cycles
 SCF Done:  E(RB-LYP) =  -258.213236928     A.U. after    8 cycles
 SCF Done:  E(RB-LYP) =  -258.213236899     A.U. after    7 cycles
 SCF Done:  E(RB-LYP) =  -258.213236937     A.U. after    6 cycles
 SCF Done:  E(RB-LYP) =  -258.213236942     A.U. after    6 cycles
 SCF Done:  E(RB-LYP) =  -258.213236938     A.U. after    6 cycles
 Optimization completed.
    -- Stationary point found.
 Normal termination of Gaussian 09 at Mon Dec 16 13:58:43 2013.

 ----------------------------------------------------------------------
 #N Geom=AllCheck Guess=TCheck SCRF=Check GenChk RBLYP/6-31G(2df,p) Fre
 q
 ----------------------------------------------------------------------

 Structure from the checkpoint file:  "/tmp/rdj3/g09-9462/Gau-9518.chk"
 -------------------------------------------------------------------
 1H-tetrazole CH2N4 casno=288948 state=1 config=1 method=13 basis=19
 -------------------------------------------------------------------
 Charge =  0 Multiplicity = 1

                         Standard orientation:
 ---------------------------------------------------------------------
 Center     Atomic      Atomic             Coordinates (Angstroms)
 Number     Number       Type             X           Y           Z
 ---------------------------------------------------------------------
      1          6           0        1.076269    0.241514    0.000000
      2          7           0        0.000000    1.066667    0.000000
      3          7           0       -1.138342    0.302087    0.000000
      4          7           0       -0.729328   -0.939643    0.000000
      5          7           0        0.653413   -1.016048    0.000000
      6          1           0        2.106393    0.578850    0.000000
      7          1           0       -0.064213    2.080626    0.000000
 ---------------------------------------------------------------------

 SCF Done:  E(RB-LYP) =  -258.213236938     A.U. after    1 cycles

 The electronic state is 1-A'.
 Alpha  occ. eigenvalues --  -14.12883 -14.09376 -14.07783 -14.05039 -10.00848
 Alpha  occ. eigenvalues --   -1.02419  -0.84681  -0.79881  -0.60392  -0.58927
 Alpha  occ. eigenvalues --   -0.52709  -0.43805  -0.42877  -0.31845  -0.28345
 Alpha  occ. eigenvalues --   -0.26606  -0.25052  -0.23797
 Alpha virt. eigenvalues --   -0.05161  -0.01865   0.02805   0.07629   0.13149
 Alpha virt. eigenvalues --    0.16089   0.22029   0.25628   0.32643   0.37214
 Alpha virt. eigenvalues --    0.43258   0.43888   0.46233   0.48158   0.51449

 Mulliken charges:
               1
     1  C    0.093583
     2  N   -0.151260
     3  N   -0.084319
     4  N   -0.087836
     5  N   -0.195792
     6  H    0.152081
     7  H    0.273544
 Sum of Mulliken charges =   0.00000

 Dipole moment (field-independent basis, Debye):
    X=              2.3302    Y=              4.4981    Z=              0.0000  Tot=              5.0658
 Quadrupole moment (field-independent basis, Debye-Ang):
   XX=            -28.6061   YY=            -25.9494   ZZ=            -27.9729
   XY=              1.7228   XZ=              0.0000   YZ=              0.0000

  Exact polarizability:  40.557   1.072  40.023   0.000   0.000  18.465
 Approx polarizability:  88.593   0.282  94.656   0.000   0.000  34.051

                      1                      2                      3
                     A"                     A"                     A"
 Frequencies --    541.4328               665.9746               709.2210
 Red. masses --      1.6777                 2.0943                 8.6390
 Frc consts  --      0.2898                 0.5473                 2.5602
 IR Inten    --     69.7988                 5.7482                 6.9466

                      4                      5                      6
                     A"                     A'                     A'
 Frequencies --    819.9685               898.2447               948.2980
 Red. masses --      1.3498                 6.5176                 4.6935
 Frc consts  --      0.5347                 3.0983                 2.4868
 IR Inten    --     15.4964                 7.2996                 8.3110

                      7                      8                      9
                     A'                     A'                     A'
 Frequencies --    975.3555              1011.4795              1106.7910
 Red. masses --      7.6820                 3.4173                 1.9922
 Frc consts  --      4.3057                 2.0599                 1.4379
 IR Inten    --      5.0187                22.7743                16.4409

                     10                     11                     12
                     A'                     A'                     A'
 Frequencies --   1193.6819              1211.7714              1386.3341
 Red. masses --      3.3083                 4.0223                 2.9402
 Frc consts  --      2.7773                 3.4799                 3.3293
 IR Inten    --     12.5957                 0.9110                 7.8120

                     13                     14                     15
                     A'                     A'                     A'
 Frequencies --   1432.7059              3209.4371              3540.6627
 Red. masses --      3.0366                 1.0984                 1.0828
 Frc consts  --      3.6724                 6.6663                 7.9974
 IR Inten    --     14.6246                 0.3814                56.7005

 - Thermochemistry -
 -------------------
 Temperature   298.150 Kelvin.  Pressure   1.00000 Atm.
 Atom     1 has atomic number  6 and mass  12.00000

 Molecular mass:    70.02795 amu.
 Principal axes and moments of inertia in atomic units:
                           1         2         3
     Eigenvalues --   175.48149 178.84260 354.32409
           X            0.89264   0.45076   0.00000
           Y           -0.45076   0.89264   0.00000
           Z            0.00000   0.00000   1.00000
 This molecule is an asymmetric top.
 Rotational symmetry number  1.
 Rotational temperatures (Kelvin)      0.49358     0.48430     0.24445
 Rotational constants (GHZ):          10.28451    10.09123     5.09348
 Zero-point vibrational energy     117541.2 (Joules/Mol)
                                   28.09303 (Kcal/Mol)
 Warning -- explicit consideration of   1 degrees of freedom as
           vibrations may cause significant error
 Vibrational temperatures:    779.00   958.19  1020.41  1179.75  1292.37
          (Kelvin)           1364.39  1403.32  1455.29  1592.42  1717.44
                             1743.47  1994.62  2061.34  4617.66  5094.22

 Zero-point correction=                           0.044769 (Hartree/Particle)
 Thermal correction to Energy=                    0.048353
 Thermal correction to Enthalpy=                  0.049297
 Thermal correction to Gibbs Free Energy=         0.018602
 Sum of electronic and zero-point Energies=           -258.168468
 Sum of electronic and thermal Energies=              -258.164884
 Sum of electronic and thermal Enthalpies=            -258.163940
 Sum of electronic and thermal Free Energies=         -258.194635

                     E (Thermal)             CV                S
                      KCal/Mol        Cal/Mol-Kelvin    Cal/Mol-Kelvin
 Total                   30.342             12.042             64.603
 Electronic               0.000              0.000              0.000
 Translational            0.889              2.981             38.656
 Rotational               0.889              2.981             23.923
 Vibrational             28.564              6.080              2.024
 Vibration     1          0.897              1.158              0.562

 Normal termination of Gaussian 09 at Mon Dec 16 13:59:23 2013.
