 Gaussian 09, Revision D.01,
 Gaussian 09:  EM64L-G09RevD.01 24-Apr-2013

 ------------------------------
 #BLYP/6-31G* opt=z-matrix freq
 ------------------------------

 ------------------------------------------------------------------
 1H-tetrazole CH2N4 casno=288948 state=1 config=1 method=13 basis=1
 ------------------------------------------------------------------
 Symbolic Z-matrix:
 Charge =  0 Multiplicity = 1

 SCF Done:  E(RB-LYP) =  -258.187279067     A.U. after   15 cycles
 SCF Done:  E(RB-LYP) =  -258.197959614     A.U. after   14 cycles
 SCF Done:  E(RB-LYP) =  -258.198305545     A.U. after   13 cycles
 SCF Done:  E(RB-LYP) =  -258.197814974     A.U. after   13 cycles
 SCF Done:  E(RB-LYP) =  -258.198345883     A.U. after   11 cycles
 SCF Done:  E(RB-LYP) =  -258.198353599     A.U. after    9 cycles
 SCF Done:  E(RB-LYP) =  -258.198311024     A.U. after   13 cycles
 SCF Done:  E(RB-LYP) =  -258.198355320     A.U. after    9 cycles
 SCF Done:  E(RB-LYP) =  -258.198345164     A.U. after   11 cycles
 SCF Done:  E(RB-LYP) =  -258.198355568     A.U. after    9 cycles
 SCF Done:  E(RB-LYP) =  -258.198355486     A.U. after    9 cycles
 SCF Done:  E(RB-LYP) =  -258.198356870     A.U. after    9 cycles
 SCF Done:  E(RB-LYP) =  -258.198332714     A.U. after   12 cycles
 SCF Done:  E(RB-LYP) =  -258.198357171     A.U. after    9 cycles
 SCF Done:  E(RB-LYP) =  -258.198356443     A.U. after    9 cycles
 SCF Done:  E(RB-LYP) =  -258.198357187     A.U. after    4 cycles
 SCF Done:  E(RB-LYP) =  -258.198357230     A.U. after    8 cycles
 SCF Done:  E(RB-LYP) =  -258.198357241     A.U. after    7 cycles
 SCF Done:  E(RB-LYP) =  -258.198357236     A.U. after    7 cycles
 Optimization completed.
    -- Stationary point found.
 Normal termination of Gaussian 09 at Mon Nov 25 16:59:30 2013.

 -------------------------------------------------------------------
 #N Geom=AllCheck Guess=TCheck SCRF=Check GenChk RBLYP/6-31G(d) Freq
 -------------------------------------------------------------------

 Structure from the checkpoint file:  "/tmp/rdj3/g09-16833/Gau-18638.chk"
 ------------------------------------------------------------------
 1H-tetrazole CH2N4 casno=288948 state=1 config=1 method=13 basis=1
 ------------------------------------------------------------------
 Charge =  0 Multiplicity = 1

                         Standard orientation:
 ---------------------------------------------------------------------
 Center     Atomic      Atomic             Coordinates (Angstroms)
 Number     Number       Type             X           Y           Z
 ---------------------------------------------------------------------
      1          6           0        1.079443    0.241762    0.000000
      2          7           0        0.000000    1.069054    0.000000
      3          7           0       -1.142554    0.302483    0.000000
      4          7           0       -0.731295   -0.941408    0.000000
      5          7           0        0.655944   -1.017934    0.000000
      6          1           0        2.113099    0.577470    0.000000
      7          1           0       -0.064422    2.086593    0.000000
 ---------------------------------------------------------------------

 SCF Done:  E(RB-LYP) =  -258.198357236     A.U. after    1 cycles

 The electronic state is 1-A'.
 Alpha  occ. eigenvalues --  -14.13824 -14.10180 -14.08471 -14.05723 -10.01713
 Alpha  occ. eigenvalues --   -1.02565  -0.84844  -0.80136  -0.60644  -0.59065
 Alpha  occ. eigenvalues --   -0.52937  -0.44047  -0.42834  -0.31921  -0.28373
 Alpha  occ. eigenvalues --   -0.26739  -0.25141  -0.23881
 Alpha virt. eigenvalues --   -0.05319  -0.01943   0.02437   0.07304   0.13060
 Alpha virt. eigenvalues --    0.16208   0.22654   0.28231   0.34217   0.46784
 Alpha virt. eigenvalues --    0.47964   0.54402   0.56099   0.58312   0.61438

 Mulliken charges:
               1
     1  C    0.264185
     2  N   -0.370018
     3  N   -0.045003
     4  N   -0.082934
     5  N   -0.280944
     6  H    0.175206
     7  H    0.339509
 Sum of Mulliken charges =   0.00000

 Dipole moment (field-independent basis, Debye):
    X=              2.3742    Y=              4.5961    Z=              0.0000  Tot=              5.1731
 Quadrupole moment (field-independent basis, Debye-Ang):
   XX=            -28.6525   YY=            -26.0314   ZZ=            -28.1657
   XY=              1.7369   XZ=              0.0000   YZ=              0.0000

  Exact polarizability:  39.213   1.096  38.987   0.000   0.000  15.671
 Approx polarizability:  86.014   0.035  92.807   0.000   0.000  27.777

                      1                      2                      3
                     A"                     A"                     A"
 Frequencies --    520.6308               662.2121               702.9124
 Red. masses --      1.7257                 2.0821                 8.5174
 Frc consts  --      0.2756                 0.5380                 2.4795
 IR Inten    --     82.0474                 7.4504                 6.7956

                      4                      5                      6
                     A"                     A'                     A'
 Frequencies --    799.7997               889.5348               940.9409
 Red. masses --      1.3282                 6.8410                 4.6832
 Frc consts  --      0.5006                 3.1893                 2.4430
 IR Inten    --     19.8258                 7.2502                 9.8699

                      7                      8                      9
                     A'                     A'                     A'
 Frequencies --    969.0826              1007.9350              1106.4407
 Red. masses --      7.6529                 3.6240                 1.9350
 Frc consts  --      4.2344                 2.1692                 1.3957
 IR Inten    --      4.7275                21.8941                16.5241

                     10                     11                     12
                     A'                     A'                     A'
 Frequencies --   1193.3554              1212.0958              1395.3412
 Red. masses --      4.2362                 3.1456                 2.9709
 Frc consts  --      3.5544                 2.7229                 3.4080
 IR Inten    --     14.9342                 0.4533                 8.2727

                     13                     14                     15
                     A'                     A'                     A'
 Frequencies --   1439.5893              3220.1014              3524.3784
 Red. masses --      2.9589                 1.0985                 1.0828
 Frc consts  --      3.6129                 6.7108                 7.9246
 IR Inten    --     15.8149                 0.1560                48.3518

 - Thermochemistry -
 -------------------
 Temperature   298.150 Kelvin.  Pressure   1.00000 Atm.
 Atom     1 has atomic number  6 and mass  12.00000

 Molecular mass:    70.02795 amu.
 Principal axes and moments of inertia in atomic units:
                           1         2         3
     Eigenvalues --   176.22283 179.99736 356.22019
           X            0.90924   0.41628   0.00000
           Y           -0.41628   0.90924   0.00000
           Z            0.00000   0.00000   1.00000
 This molecule is an asymmetric top.
 Rotational symmetry number  1.
 Rotational temperatures (Kelvin)      0.49150     0.48119     0.24315
 Rotational constants (GHZ):          10.24125    10.02649     5.06636
 Zero-point vibrational energy     117140.4 (Joules/Mol)
                                   27.99723 (Kcal/Mol)
 Warning -- explicit consideration of   1 degrees of freedom as
           vibrations may cause significant error
 Vibrational temperatures:    749.07   952.77  1011.33  1150.73  1279.84
          (Kelvin)           1353.80  1394.29  1450.19  1591.92  1716.97
                             1743.93  2007.58  2071.25  4633.00  5070.79

 Zero-point correction=                           0.044616 (Hartree/Particle)
 Thermal correction to Energy=                    0.048228
 Thermal correction to Enthalpy=                  0.049172
 Thermal correction to Gibbs Free Energy=         0.018429
 Sum of electronic and zero-point Energies=           -258.153741
 Sum of electronic and thermal Energies=              -258.150129
 Sum of electronic and thermal Enthalpies=            -258.149185
 Sum of electronic and thermal Free Energies=         -258.179928

                     E (Thermal)             CV                S
                      KCal/Mol        Cal/Mol-Kelvin    Cal/Mol-Kelvin
 Total                   30.264             12.167             64.705
 Electronic               0.000              0.000              0.000
 Translational            0.889              2.981             38.656
 Rotational               0.889              2.981             23.939
 Vibrational             28.486              6.205              2.110
 Vibration     1          0.876              1.204              0.609

 Normal termination of Gaussian 09 at Mon Nov 25 16:59:37 2013.
