 Gaussian 09, Revision D.01,
 Gaussian 09:  EM64L-G09RevD.01 24-Apr-2013

 -------------------------------
 #BLYP/6-311G* opt=z-matrix freq
 -------------------------------

 ------------------------------------------------------------------
 1H-tetrazole CH2N4 casno=288948 state=1 config=1 method=13 basis=7
 ------------------------------------------------------------------
 Symbolic Z-matrix:
 Charge =  0 Multiplicity = 1

 SCF Done:  E(RB-LYP) =  -258.263309214     A.U. after   15 cycles
 SCF Done:  E(RB-LYP) =  -258.263309218     A.U. after    7 cycles
 Optimization completed.
    -- Stationary point found.
 Normal termination of Gaussian 09 at Mon Dec 16 13:53:12 2013.

 --------------------------------------------------------------------
 #N Geom=AllCheck Guess=TCheck SCRF=Check GenChk RBLYP/6-311G(d) Freq
 --------------------------------------------------------------------

 Structure from the checkpoint file:  "/tmp/rdj3/g09-5083/Gau-5140.chk"
 ------------------------------------------------------------------
 1H-tetrazole CH2N4 casno=288948 state=1 config=1 method=13 basis=7
 ------------------------------------------------------------------
 Charge =  0 Multiplicity = 1

                         Standard orientation:
 ---------------------------------------------------------------------
 Center     Atomic      Atomic             Coordinates (Angstroms)
 Number     Number       Type             X           Y           Z
 ---------------------------------------------------------------------
      1          6           0        1.077324    0.240283    0.000000
      2          7           0        0.000000    1.067996    0.000000
      3          7           0       -1.139595    0.299897    0.000000
      4          7           0       -0.731332   -0.938391    0.000000
      5          7           0        0.655401   -1.014843    0.000000
      6          1           0        2.109716    0.573063    0.000000
      7          1           0       -0.064974    2.082618    0.000000
 ---------------------------------------------------------------------

 SCF Done:  E(RB-LYP) =  -258.263309218     A.U. after    1 cycles

 The electronic state is 1-A'.
 Alpha  occ. eigenvalues --  -14.10981 -14.07498 -14.05771 -14.03056  -9.99644
 Alpha  occ. eigenvalues --   -1.03552  -0.85555  -0.80985  -0.61291  -0.59824
 Alpha  occ. eigenvalues --   -0.53724  -0.44744  -0.43691  -0.32602  -0.29121
 Alpha  occ. eigenvalues --   -0.27575  -0.25704  -0.24530
 Alpha virt. eigenvalues --   -0.06010  -0.02708  -0.00724   0.03624   0.11064
 Alpha virt. eigenvalues --    0.14501   0.18744   0.22121   0.27347   0.32741
 Alpha virt. eigenvalues --    0.35205   0.39216   0.44848   0.47579   0.51604

 Mulliken charges:
               1
     1  C    0.108414
     2  N   -0.391422
     3  N   -0.012495
     4  N   -0.087336
     5  N   -0.204912
     6  H    0.233754
     7  H    0.353997
 Sum of Mulliken charges =   0.00000

 Dipole moment (field-independent basis, Debye):
    X=              2.3971    Y=              4.6678    Z=              0.0000  Tot=              5.2473
 Quadrupole moment (field-independent basis, Debye-Ang):
   XX=            -29.0790   YY=            -26.5209   ZZ=            -28.4724
   XY=              1.7979   XZ=              0.0000   YZ=              0.0000

  Exact polarizability:  40.669   1.105  40.427   0.000   0.000  17.672
 Approx polarizability:  86.930   0.362  93.928   0.000   0.000  30.560

                      1                      2                      3
                     A"                     A"                     A"
 Frequencies --    547.7087               667.3779               705.6745
 Red. masses --      1.8168                 1.9293                 8.2464
 Frc consts  --      0.3211                 0.5063                 2.4195
 IR Inten    --     84.5353                 9.4964                 7.6607

                      4                      5                      6
                     A"                     A'                     A'
 Frequencies --    803.3440               873.4474               926.3099
 Red. masses --      1.3512                 7.7207                 5.2930
 Frc consts  --      0.5138                 3.4704                 2.6758
 IR Inten    --     23.5069                 8.5691                14.0392

                      7                      8                      9
                     A'                     A'                     A'
 Frequencies --    970.2358              1009.5076              1099.7199
 Red. masses --      6.0588                 3.5415                 2.0643
 Frc consts  --      3.3604                 2.1265                 1.4709
 IR Inten    --      2.3886                19.2652                19.1121

                     10                     11                     12
                     A'                     A'                     A'
 Frequencies --   1191.6695              1207.8684              1388.0342
 Red. masses --      4.2364                 3.1863                 3.0461
 Frc consts  --      3.5445                 2.7389                 3.4577
 IR Inten    --     15.0965                 0.5728                 7.7036

                     13                     14                     15
                     A'                     A'                     A'
 Frequencies --   1441.2504              3195.1045              3536.6143
 Red. masses --      2.6078                 1.0989                 1.0828
 Frc consts  --      3.1915                 6.6096                 7.9796
 IR Inten    --     16.2461                 0.1099                44.0781

 - Thermochemistry -
 -------------------
 Temperature   298.150 Kelvin.  Pressure   1.00000 Atm.
 Atom     1 has atomic number  6 and mass  12.00000

 Molecular mass:    70.02795 amu.
 Principal axes and moments of inertia in atomic units:
                           1         2         3
     Eigenvalues --   175.43004 179.27833 354.70837
           X            0.92553   0.37867   0.00000
           Y           -0.37867   0.92553   0.00000
           Z            0.00000   0.00000   1.00000
 This molecule is an asymmetric top.
 Rotational symmetry number  1.
 Rotational temperatures (Kelvin)      0.49372     0.48312     0.24418
 Rotational constants (GHZ):          10.28753    10.06670     5.08796
 Zero-point vibrational energy     117017.9 (Joules/Mol)
                                   27.96795 (Kcal/Mol)
 Warning -- explicit consideration of   1 degrees of freedom as
           vibrations may cause significant error
 Vibrational temperatures:    788.03   960.21  1015.31  1155.83  1256.69
          (Kelvin)           1332.75  1395.95  1452.45  1582.25  1714.54
                             1737.85  1997.07  2073.64  4597.04  5088.39

 Zero-point correction=                           0.044570 (Hartree/Particle)
 Thermal correction to Energy=                    0.048166
 Thermal correction to Enthalpy=                  0.049110
 Thermal correction to Gibbs Free Energy=         0.018398
 Sum of electronic and zero-point Energies=           -258.218739
 Sum of electronic and thermal Energies=              -258.215143
 Sum of electronic and thermal Enthalpies=            -258.214199
 Sum of electronic and thermal Free Energies=         -258.244911

                     E (Thermal)             CV                S
                      KCal/Mol        Cal/Mol-Kelvin    Cal/Mol-Kelvin
 Total                   30.224             12.136             64.638
 Electronic               0.000              0.000              0.000
 Translational            0.889              2.981             38.656
 Rotational               0.889              2.981             23.927
 Vibrational             28.447              6.174              2.056
 Vibration     1          0.903              1.145              0.549

 Normal termination of Gaussian 09 at Mon Dec 16 13:53:23 2013.
