 Gaussian 09, Revision D.01,
 Gaussian 09:  EM64L-G09RevD.01 24-Apr-2013

 -----------------------------------
 #BLYP/6-311G(d,p) opt=z-matrix freq
 -----------------------------------

 -------------------------------------------------------------------
 1H-tetrazole CH2N4 casno=288948 state=1 config=1 method=13 basis=21
 -------------------------------------------------------------------
 Symbolic Z-matrix:
 Charge =  0 Multiplicity = 1

 SCF Done:  E(RB-LYP) =  -258.268101223     A.U. after   15 cycles
 SCF Done:  E(RB-LYP) =  -258.268079147     A.U. after   11 cycles
 SCF Done:  E(RB-LYP) =  -258.268101157     A.U. after    9 cycles
 SCF Done:  E(RB-LYP) =  -258.268102484     A.U. after    9 cycles
 SCF Done:  E(RB-LYP) =  -258.268075262     A.U. after   11 cycles
 SCF Done:  E(RB-LYP) =  -258.268102897     A.U. after    8 cycles
 SCF Done:  E(RB-LYP) =  -258.268101645     A.U. after   10 cycles
 SCF Done:  E(RB-LYP) =  -258.268102876     A.U. after    8 cycles
 SCF Done:  E(RB-LYP) =  -258.268102950     A.U. after    7 cycles
 SCF Done:  E(RB-LYP) =  -258.268102813     A.U. after    9 cycles
 SCF Done:  E(RB-LYP) =  -258.268102959     A.U. after    8 cycles
 SCF Done:  E(RB-LYP) =  -258.268102746     A.U. after    8 cycles
 SCF Done:  E(RB-LYP) =  -258.268102956     A.U. after    4 cycles
 SCF Done:  E(RB-LYP) =  -258.268102964     A.U. after    6 cycles
 SCF Done:  E(RB-LYP) =  -258.268102660     A.U. after    9 cycles
 SCF Done:  E(RB-LYP) =  -258.268102957     A.U. after    5 cycles
 SCF Done:  E(RB-LYP) =  -258.268102965     A.U. after    5 cycles
 SCF Done:  E(RB-LYP) =  -258.268102964     A.U. after    6 cycles
 Optimization completed.
    -- Stationary point found.
 Normal termination of Gaussian 09 at Mon Dec 16 14:00:11 2013.

 ----------------------------------------------------------------------
 #N Geom=AllCheck Guess=TCheck SCRF=Check GenChk RBLYP/6-311G(d,p) Freq
 ----------------------------------------------------------------------

 Structure from the checkpoint file:  "/tmp/rdj3/g09-9462/Gau-11414.chk"
 -------------------------------------------------------------------
 1H-tetrazole CH2N4 casno=288948 state=1 config=1 method=13 basis=21
 -------------------------------------------------------------------
 Charge =  0 Multiplicity = 1

                         Standard orientation:
 ---------------------------------------------------------------------
 Center     Atomic      Atomic             Coordinates (Angstroms)
 Number     Number       Type             X           Y           Z
 ---------------------------------------------------------------------
      1          6           0        1.077678    0.240501    0.000000
      2          7           0        0.000000    1.068168    0.000000
      3          7           0       -1.139706    0.299552    0.000000
      4          7           0       -0.731263   -0.938548    0.000000
      5          7           0        0.655066   -1.014795    0.000000
      6          1           0        2.108877    0.573281    0.000000
      7          1           0       -0.063623    2.083069    0.000000
 ---------------------------------------------------------------------

 SCF Done:  E(RB-LYP) =  -258.268102964     A.U. after    1 cycles

 The electronic state is 1-A'.
 Alpha  occ. eigenvalues --  -14.11014 -14.07529 -14.05816 -14.03106  -9.99653
 Alpha  occ. eigenvalues --   -1.03552  -0.85517  -0.80990  -0.61179  -0.59819
 Alpha  occ. eigenvalues --   -0.53630  -0.44689  -0.43731  -0.32615  -0.29184
 Alpha  occ. eigenvalues --   -0.27623  -0.25728  -0.24555
 Alpha virt. eigenvalues --   -0.06122  -0.02806  -0.00650   0.03633   0.10961
 Alpha virt. eigenvalues --    0.14347   0.18714   0.22054   0.27345   0.32671
 Alpha virt. eigenvalues --    0.35170   0.39297   0.44376   0.47194   0.51496

 Mulliken charges:
               1
     1  C    0.202677
     2  N   -0.253344
     3  N   -0.029196
     4  N   -0.085790
     5  N   -0.210951
     6  H    0.133029
     7  H    0.243575
 Sum of Mulliken charges =   0.00000

 Dipole moment (field-independent basis, Debye):
    X=              2.3880    Y=              4.6331    Z=              0.0000  Tot=              5.2123
 Quadrupole moment (field-independent basis, Debye-Ang):
   XX=            -29.1064   YY=            -26.6079   ZZ=            -28.3862
   XY=              1.7924   XZ=              0.0000   YZ=              0.0000

  Exact polarizability:  40.867   1.136  40.628   0.000   0.000  17.915
 Approx polarizability:  87.499   0.493  94.637   0.000   0.000  31.035

                      1                      2                      3
                     A"                     A"                     A"
 Frequencies --    557.9151               666.1886               705.5185
 Red. masses --      1.8287                 1.9243                 7.9357
 Frc consts  --      0.3354                 0.5032                 2.3273
 IR Inten    --     77.3774                 9.3945                 8.4407

                      4                      5                      6
                     A"                     A'                     A'
 Frequencies --    818.4742               874.2833               922.2144
 Red. masses --      1.3558                 7.6107                 5.1405
 Frc consts  --      0.5351                 3.4275                 2.5758
 IR Inten    --     20.6181                 8.4806                13.8283

                      7                      8                      9
                     A'                     A'                     A'
 Frequencies --    969.0586              1007.5745              1098.5889
 Red. masses --      5.9532                 3.4314                 2.1013
 Frc consts  --      3.2939                 2.0524                 1.4942
 IR Inten    --      2.8373                18.9524                19.2185

                     10                     11                     12
                     A'                     A'                     A'
 Frequencies --   1190.4993              1204.9289              1380.2039
 Red. masses --      3.4955                 3.6396                 2.9960
 Frc consts  --      2.9189                 3.1133                 3.3627
 IR Inten    --     14.6775                 1.0081                 7.7344

                     13                     14                     15
                     A'                     A'                     A'
 Frequencies --   1432.4329              3195.7094              3530.8552
 Red. masses --      2.8086                 1.0987                 1.0829
 Frc consts  --      3.3953                 6.6110                 7.9543
 IR Inten    --     14.7330                 0.5062                59.2823

 - Thermochemistry -
 -------------------
 Temperature   298.150 Kelvin.  Pressure   1.00000 Atm.
 Atom     1 has atomic number  6 and mass  12.00000

 Molecular mass:    70.02795 amu.
 Principal axes and moments of inertia in atomic units:
                           1         2         3
     Eigenvalues --   175.49980 179.24321 354.74301
           X            0.92911   0.36981   0.00000
           Y           -0.36981   0.92911   0.00000
           Z            0.00000   0.00000   1.00000
 This molecule is an asymmetric top.
 Rotational symmetry number  1.
 Rotational temperatures (Kelvin)      0.49353     0.48322     0.24416
 Rotational constants (GHZ):          10.28344    10.06867     5.08746
 Zero-point vibrational energy     116961.6 (Joules/Mol)
                                   27.95448 (Kcal/Mol)
 Warning -- explicit consideration of   1 degrees of freedom as
           vibrations may cause significant error
 Vibrational temperatures:    802.71   958.50  1015.08  1177.60  1257.90
          (Kelvin)           1326.86  1394.26  1449.67  1580.62  1712.86
                             1733.62  1985.80  2060.95  4597.91  5080.11

 Zero-point correction=                           0.044548 (Hartree/Particle)
 Thermal correction to Energy=                    0.048136
 Thermal correction to Enthalpy=                  0.049080
 Thermal correction to Gibbs Free Energy=         0.018381
 Sum of electronic and zero-point Energies=           -258.223555
 Sum of electronic and thermal Energies=              -258.219967
 Sum of electronic and thermal Enthalpies=            -258.219023
 Sum of electronic and thermal Free Energies=         -258.249722

                     E (Thermal)             CV                S
                      KCal/Mol        Cal/Mol-Kelvin    Cal/Mol-Kelvin
 Total                   30.206             12.109             64.613
 Electronic               0.000              0.000              0.000
 Translational            0.889              2.981             38.656
 Rotational               0.889              2.981             23.927
 Vibrational             28.428              6.147              2.030
 Vibration     1          0.913              1.122              0.528

 Normal termination of Gaussian 09 at Mon Dec 16 14:00:23 2013.
