 Gaussian 09, Revision D.01,
 Gaussian 09:  EM64L-G09RevD.01 24-Apr-2013

 ------------------------------
 #BLYP/STO-3G opt=z-matrix freq
 ------------------------------

 -------------------------------------------------------------------
 1H-tetrazole CH2N4 casno=288948 state=1 config=1 method=13 basis=20
 -------------------------------------------------------------------
 Symbolic Z-matrix:
 Charge =  0 Multiplicity = 1

 SCF Done:  E(RB-LYP) =  -254.741589653     A.U. after   15 cycles
 SCF Done:  E(RB-LYP) =  -254.808185586     A.U. after   15 cycles
 SCF Done:  E(RB-LYP) =  -254.820848644     A.U. after   16 cycles
 SCF Done:  E(RB-LYP) =  -254.823028715     A.U. after   13 cycles
 SCF Done:  E(RB-LYP) =  -254.820701076     A.U. after   15 cycles
 SCF Done:  E(RB-LYP) =  -254.823035657     A.U. after   12 cycles
 SCF Done:  E(RB-LYP) =  -254.823258861     A.U. after   14 cycles
 SCF Done:  E(RB-LYP) =  -254.823160891     A.U. after   13 cycles
 SCF Done:  E(RB-LYP) =  -254.823258221     A.U. after   11 cycles
 SCF Done:  E(RB-LYP) =  -254.823258882     A.U. after    6 cycles
 SCF Done:  E(RB-LYP) =  -254.823249303     A.U. after   12 cycles
 SCF Done:  E(RB-LYP) =  -254.823269450     A.U. after    9 cycles
 SCF Done:  E(RB-LYP) =  -254.823269988     A.U. after    9 cycles
 SCF Done:  E(RB-LYP) =  -254.823260404     A.U. after   13 cycles
 SCF Done:  E(RB-LYP) =  -254.823269983     A.U. after   10 cycles
 SCF Done:  E(RB-LYP) =  -254.823270188     A.U. after    8 cycles
 SCF Done:  E(RB-LYP) =  -254.823265265     A.U. after   12 cycles
 SCF Done:  E(RB-LYP) =  -254.823269981     A.U. after   10 cycles
 SCF Done:  E(RB-LYP) =  -254.823270172     A.U. after    5 cycles
 Optimization completed.
    -- Stationary point found.
 Normal termination of Gaussian 09 at Mon Nov 25 17:00:05 2013.

 -----------------------------------------------------------------
 #N Geom=AllCheck Guess=TCheck SCRF=Check GenChk RBLYP/STO-3G Freq
 -----------------------------------------------------------------

 Structure from the checkpoint file:  "/tmp/rdj3/g09-16833/Gau-20300.chk"
 -------------------------------------------------------------------
 1H-tetrazole CH2N4 casno=288948 state=1 config=1 method=13 basis=20
 -------------------------------------------------------------------
 Charge =  0 Multiplicity = 1

                         Standard orientation:
 ---------------------------------------------------------------------
 Center     Atomic      Atomic             Coordinates (Angstroms)
 Number     Number       Type             X           Y           Z
 ---------------------------------------------------------------------
      1          6           0        1.118429    0.266392    0.000000
      2          7           0        0.000000    1.121256    0.000000
      3          7           0       -1.229402    0.318062    0.000000
      4          7           0       -0.766049   -1.008379    0.000000
      5          7           0        0.732352   -1.063391    0.000000
      6          1           0        2.158269    0.645961    0.000000
      7          1           0       -0.027147    2.182851    0.000000
 ---------------------------------------------------------------------

 SCF Done:  E(RB-LYP) =  -254.823270172     A.U. after    1 cycles

 The electronic state is 1-A'.
 Alpha  occ. eigenvalues --  -13.96891 -13.89977 -13.87257 -13.85460  -9.83770
 Alpha  occ. eigenvalues --   -0.92442  -0.77383  -0.73546  -0.54068  -0.52063
 Alpha  occ. eigenvalues --   -0.46290  -0.36649  -0.33060  -0.23464  -0.19401
 Alpha  occ. eigenvalues --   -0.18766  -0.17679  -0.16038
 Alpha virt. eigenvalues --    0.00829   0.04643   0.14559   0.18180   0.26371
 Alpha virt. eigenvalues --    0.27730   0.30066   0.42173   0.48367

 Mulliken charges:
               1
     1  C    0.063707
     2  N   -0.185110
     3  N   -0.041948
     4  N   -0.060532
     5  N   -0.142565
     6  H    0.120314
     7  H    0.246135
 Sum of Mulliken charges =   0.00000

 Dipole moment (field-independent basis, Debye):
    X=              1.9818    Y=              4.2069    Z=              0.0000  Tot=              4.6503
 Quadrupole moment (field-independent basis, Debye-Ang):
   XX=            -27.1633   YY=            -24.4697   ZZ=            -26.0265
   XY=              1.8083   XZ=              0.0000   YZ=              0.0000

  Exact polarizability:  26.740   1.312  27.667   0.000   0.000   6.363
 Approx polarizability:  80.205  -2.735  94.349   0.000   0.000  10.848

                      1                      2                      3
                     A"                     A"                     A"
 Frequencies --    396.7188               595.0277               604.2815
 Red. masses --      1.8631                 2.0542                 9.5873
 Frc consts  --      0.1728                 0.4285                 2.0627
 IR Inten    --     76.6117                14.6563                 5.0335

                      4                      5                      6
                     A"                     A'                     A'
 Frequencies --    773.2457               812.9318               875.7695
 Red. masses --      1.2366                 8.2130                 3.9179
 Frc consts  --      0.4356                 3.1979                 1.7704
 IR Inten    --     14.6396                 4.1652                 3.0109

                      7                      8                      9
                     A'                     A'                     A'
 Frequencies --    909.4562               946.8411              1055.6867
 Red. masses --      8.8972                 3.6857                 4.1189
 Frc consts  --      4.3358                 1.9468                 2.7046
 IR Inten    --      8.3001                11.8318                 0.8480

                     10                     11                     12
                     A'                     A'                     A'
 Frequencies --   1091.7389              1156.8862              1373.0802
 Red. masses --      2.0148                 2.8558                 3.2397
 Frc consts  --      1.4149                 2.2519                 3.5987
 IR Inten    --      7.3275                 1.7346                11.2897

                     13                     14                     15
                     A'                     A'                     A'
 Frequencies --   1406.6085              3380.0528              3542.4892
 Red. masses --      2.7767                 1.0987                 1.0871
 Frc consts  --      3.2368                 7.3953                 8.0376
 IR Inten    --     29.6006                23.6653                36.2192

 - Thermochemistry -
 -------------------
 Temperature   298.150 Kelvin.  Pressure   1.00000 Atm.
 Atom     1 has atomic number  6 and mass  12.00000

 Molecular mass:    70.02795 amu.
 Principal axes and moments of inertia in atomic units:
                           1         2         3
     Eigenvalues --   195.54412 202.95391 398.49803
           X            0.92527   0.37932   0.00000
           Y           -0.37932   0.92527   0.00000
           Z            0.00000   0.00000   1.00000
 This molecule is an asymmetric top.
 Rotational symmetry number  1.
 Rotational temperatures (Kelvin)      0.44294     0.42677     0.21735
 Rotational constants (GHZ):           9.22933     8.89237     4.52886
 Zero-point vibrational energy     113171.6 (Joules/Mol)
                                   27.04866 (Kcal/Mol)
 Warning -- explicit consideration of   3 degrees of freedom as
           vibrations may cause significant error
 Vibrational temperatures:    570.79   856.11   869.43  1112.53  1169.63
          (Kelvin)           1260.04  1308.50  1362.29  1518.90  1570.77
                             1664.50  1975.55  2023.79  4863.14  5096.85

 Zero-point correction=                           0.043105 (Hartree/Particle)
 Thermal correction to Energy=                    0.046979
 Thermal correction to Enthalpy=                  0.047923
 Thermal correction to Gibbs Free Energy=         0.016630
 Sum of electronic and zero-point Energies=           -254.780165
 Sum of electronic and thermal Energies=              -254.776291
 Sum of electronic and thermal Enthalpies=            -254.775347
 Sum of electronic and thermal Free Energies=         -254.806640

                     E (Thermal)             CV                S
                      KCal/Mol        Cal/Mol-Kelvin    Cal/Mol-Kelvin
 Total                   29.480             13.351             65.862
 Electronic               0.000              0.000              0.000
 Translational            0.889              2.981             38.656
 Rotational               0.889              2.981             24.273
 Vibrational             27.702              7.390              2.933
 Vibration     1          0.763              1.477              0.975
 Vibration     2          0.953              1.042              0.458
 Vibration     3          0.963              1.023              0.442

 Normal termination of Gaussian 09 at Mon Nov 25 17:00:08 2013.
