 Gaussian 09, Revision D.01,
 Gaussian 09:  EM64L-G09RevD.01 24-Apr-2013

 ----------------------------
 #BLYP/TZVP opt=z-matrix freq
 ----------------------------

 -------------------------------------------------------------------
 1H-tetrazole CH2N4 casno=288948 state=1 config=1 method=13 basis=32
 -------------------------------------------------------------------
 Symbolic Z-matrix:
 Charge =  0 Multiplicity = 1

 SCF Done:  E(RB-LYP) =  -258.288486603     A.U. after   15 cycles
 SCF Done:  E(RB-LYP) =  -258.288482342     A.U. after   11 cycles
 SCF Done:  E(RB-LYP) =  -258.288493066     A.U. after    9 cycles
 SCF Done:  E(RB-LYP) =  -258.288498378     A.U. after   11 cycles
 SCF Done:  E(RB-LYP) =  -258.288497870     A.U. after   10 cycles
 SCF Done:  E(RB-LYP) =  -258.288499311     A.U. after    6 cycles
 SCF Done:  E(RB-LYP) =  -258.288497861     A.U. after    9 cycles
 SCF Done:  E(RB-LYP) =  -258.288499331     A.U. after    9 cycles
 SCF Done:  E(RB-LYP) =  -258.288500179     A.U. after    8 cycles
 SCF Done:  E(RB-LYP) =  -258.288500080     A.U. after    9 cycles
 SCF Done:  E(RB-LYP) =  -258.288498948     A.U. after   10 cycles
 SCF Done:  E(RB-LYP) =  -258.288500498     A.U. after    5 cycles
 SCF Done:  E(RB-LYP) =  -258.288499579     A.U. after   10 cycles
 SCF Done:  E(RB-LYP) =  -258.277202073     A.U. after   15 cycles
 SCF Done:  E(RB-LYP) =  -258.288049469     A.U. after   14 cycles
 SCF Done:  E(RB-LYP) =  -258.281675981     A.U. after   14 cycles
 SCF Done:  E(RB-LYP) =  -258.288500510     A.U. after    9 cycles
 SCF Done:  E(RB-LYP) =  -258.288483940     A.U. after   12 cycles
 SCF Done:  E(RB-LYP) =  -258.288500504     A.U. after    9 cycles
 Optimization completed.
    -- Stationary point found.
 Normal termination of Gaussian 09 at Mon Dec 16 14:01:26 2013.

 ---------------------------------------------------------------
 #N Geom=AllCheck Guess=TCheck SCRF=Check GenChk RBLYP/TZVP Freq
 ---------------------------------------------------------------

 Structure from the checkpoint file:  "/tmp/rdj3/g09-9462/Gau-13004.chk"
 -------------------------------------------------------------------
 1H-tetrazole CH2N4 casno=288948 state=1 config=1 method=13 basis=32
 -------------------------------------------------------------------
 Charge =  0 Multiplicity = 1

                         Standard orientation:
 ---------------------------------------------------------------------
 Center     Atomic      Atomic             Coordinates (Angstroms)
 Number     Number       Type             X           Y           Z
 ---------------------------------------------------------------------
      1          6           0        1.076674    0.241997    0.000000
      2          7           0        0.000000    1.067168    0.000000
      3          7           0       -1.139033    0.297366    0.000000
      4          7           0       -0.730697   -0.938637    0.000000
      5          7           0        0.655124   -1.012471    0.000000
      6          1           0        2.107521    0.572820    0.000000
      7          1           0       -0.065323    2.081214    0.000000
 ---------------------------------------------------------------------

 SCF Done:  E(RB-LYP) =  -258.288500504     A.U. after    1 cycles

 The electronic state is 1-A'.
 Alpha  occ. eigenvalues --  -14.12178 -14.08898 -14.07225 -14.04441 -10.00541
 Alpha  occ. eigenvalues --   -1.04446  -0.86265  -0.81792  -0.61848  -0.60563
 Alpha  occ. eigenvalues --   -0.54314  -0.45332  -0.44444  -0.33396  -0.29915
 Alpha  occ. eigenvalues --   -0.28341  -0.26489  -0.25331
 Alpha virt. eigenvalues --   -0.06882  -0.03611  -0.01549   0.03556   0.08781
 Alpha virt. eigenvalues --    0.09636   0.10544   0.17283   0.18066   0.21698
 Alpha virt. eigenvalues --    0.24977   0.27410   0.30521   0.31134   0.31951

 Mulliken charges:
               1
     1  C   -0.072354
     2  N   -0.114142
     3  N   -0.063836
     4  N   -0.079208
     5  N   -0.065294
     6  H    0.135829
     7  H    0.259005
 Sum of Mulliken charges =   0.00000

 Dipole moment (field-independent basis, Debye):
    X=              2.4864    Y=              4.7665    Z=              0.0000  Tot=              5.3760
 Quadrupole moment (field-independent basis, Debye-Ang):
   XX=            -29.6645   YY=            -27.1245   ZZ=            -28.7973
   XY=              1.8823   XZ=              0.0000   YZ=              0.0000

  Exact polarizability:  44.153   0.856  43.958   0.000   0.000  22.582
 Approx polarizability:  90.130   0.188  97.233   0.000   0.000  37.916

                      1                      2                      3
                     A"                     A"                     A"
 Frequencies --    537.1803               663.8307               699.8394
 Red. masses --      1.9994                 1.8671                 7.5624
 Frc consts  --      0.3399                 0.4848                 2.1823
 IR Inten    --     68.8758                12.4382                 8.3824

                      4                      5                      6
                     A"                     A'                     A'
 Frequencies --    802.0280               862.1151               909.8487
 Red. masses --      1.3121                 8.3016                 5.5955
 Frc consts  --      0.4973                 3.6353                 2.7292
 IR Inten    --     27.8830                10.0522                15.8034

                      7                      8                      9
                     A'                     A'                     A'
 Frequencies --    966.8789              1006.7648              1100.2812
 Red. masses --      6.0445                 3.5302                 2.0782
 Frc consts  --      3.3293                 2.1082                 1.4823
 IR Inten    --      1.9138                18.9645                19.0651

                     10                     11                     12
                     A'                     A'                     A'
 Frequencies --   1184.8711              1206.0132              1378.1058
 Red. masses --      4.4619                 2.8836                 2.8503
 Frc consts  --      3.6907                 2.4711                 3.1894
 IR Inten    --     16.1181                 0.6905                 8.1199

                     13                     14                     15
                     A'                     A'                     A'
 Frequencies --   1430.7131              3203.1358              3527.3114
 Red. masses --      2.7672                 1.0989                 1.0830
 Frc consts  --      3.3374                 6.6432                 7.9393
 IR Inten    --     15.4554                 1.1694                66.1231

 - Thermochemistry -
 -------------------
 Temperature   298.150 Kelvin.  Pressure   1.00000 Atm.
 Atom     1 has atomic number  6 and mass  12.00000

 Molecular mass:    70.02795 amu.
 Principal axes and moments of inertia in atomic units:
                           1         2         3
     Eigenvalues --   175.26679 178.85274 354.11953
           X            0.95030   0.31133   0.00000
           Y           -0.31133   0.95030   0.00000
           Z            0.00000   0.00000   1.00000
 This molecule is an asymmetric top.
 Rotational symmetry number  1.
 Rotational temperatures (Kelvin)      0.49418     0.48427     0.24459
 Rotational constants (GHZ):          10.29711    10.09065     5.09642
 Zero-point vibrational energy     116509.8 (Joules/Mol)
                                   27.84651 (Kcal/Mol)
 Warning -- explicit consideration of   1 degrees of freedom as
           vibrations may cause significant error
 Vibrational temperatures:    772.88   955.10  1006.91  1153.94  1240.39
          (Kelvin)           1309.07  1391.12  1448.51  1583.06  1704.76
                             1735.18  1982.78  2058.47  4608.59  5075.01

 Zero-point correction=                           0.044376 (Hartree/Particle)
 Thermal correction to Energy=                    0.047991
 Thermal correction to Enthalpy=                  0.048935
 Thermal correction to Gibbs Free Energy=         0.018199
 Sum of electronic and zero-point Energies=           -258.244124
 Sum of electronic and thermal Energies=              -258.240509
 Sum of electronic and thermal Enthalpies=            -258.239565
 Sum of electronic and thermal Free Energies=         -258.270301

                     E (Thermal)             CV                S
                      KCal/Mol        Cal/Mol-Kelvin    Cal/Mol-Kelvin
 Total                   30.115             12.237             64.690
 Electronic               0.000              0.000              0.000
 Translational            0.889              2.981             38.656
 Rotational               0.889              2.981             23.922
 Vibrational             28.337              6.275              2.112
 Vibration     1          0.892              1.168              0.571

 Normal termination of Gaussian 09 at Mon Dec 16 14:01:39 2013.
