 Gaussian 09, Revision D.01,
 Gaussian 09:  EM64L-G09RevD.01 24-Apr-2013

 ----------------------------
 #CID/3-21G opt=z-matrix freq
 ----------------------------

 ------------------------------------------------------------------
 1H-tetrazole CH2N4 casno=288948 state=1 config=1 method=14 basis=2
 ------------------------------------------------------------------
 Symbolic Z-matrix:
 Charge =  0 Multiplicity = 1

 SCF Done:  E(RHF) =  -255.261114440     A.U. after   14 cycles
 E2 =    -0.5240768282D+00 EUMP2 =    -0.25578519126841D+03
 SCF Done:  E(RHF) =  -255.267066579     A.U. after   15 cycles
 E2 =    -0.5445075652D+00 EUMP2 =    -0.25581157414417D+03
 SCF Done:  E(RHF) =  -255.265734552     A.U. after   14 cycles
 E2 =    -0.5489603800D+00 EUMP2 =    -0.25581469493221D+03
 SCF Done:  E(RHF) =  -255.263114087     A.U. after   14 cycles
 E2 =    -0.5468444035D+00 EUMP2 =    -0.25580995849053D+03
 SCF Done:  E(RHF) =  -255.265080009     A.U. after   13 cycles
 E2 =    -0.5485530774D+00 EUMP2 =    -0.25581363308641D+03
 SCF Done:  E(RHF) =  -255.263448483     A.U. after   14 cycles
 E2 =    -0.5518059071D+00 EUMP2 =    -0.25581525439042D+03
 SCF Done:  E(RHF) =  -255.265693514     A.U. after   11 cycles
 E2 =    -0.5498154283D+00 EUMP2 =    -0.25581550894193D+03
 SCF Done:  E(RHF) =  -255.266265770     A.U. after   12 cycles
 E2 =    -0.5484724903D+00 EUMP2 =    -0.25581473826030D+03
 SCF Done:  E(RHF) =  -255.265740346     A.U. after   13 cycles
 E2 =    -0.5500899936D+00 EUMP2 =    -0.25581583033999D+03
 SCF Done:  E(RHF) =  -255.265868334     A.U. after   12 cycles
 E2 =    -0.5498817066D+00 EUMP2 =    -0.25581575004078D+03
 E2 =    -0.5497723134D+00 EUMP2 =    -0.25581569901689D+03
 E2 =    -0.5463993029D+00 EUMP2 =    -0.25581299165199D+03
 E2 =    -0.5491494403D+00 EUMP2 =    -0.25581495591313D+03
 E2 =    -0.5415706507D+00 EUMP2 =    -0.25580658360601D+03
 E2 =    -0.5495464711D+00 EUMP2 =    -0.25581558087936D+03
 E2 =    -0.5495982966D+00 EUMP2 =    -0.25581560934846D+03
 E2 =    -0.5474588299D+00 EUMP2 =    -0.25581335480280D+03
 E2 =    -0.5496304421D+00 EUMP2 =    -0.25581562766820D+03
 E2 =    -0.5496039779D+00 EUMP2 =    -0.25581561385415D+03
 Optimization completed.
    -- Stationary point found.
 Normal termination of Gaussian 09 at Mon Nov 25 17:43:47 2013.

 -------------------------------------------------------------------
 #N Geom=AllCheck Guess=TCheck SCRF=Check GenChk RCID(FC)/3-21G Freq
 -------------------------------------------------------------------

 Structure from the checkpoint file:  "/tmp/rdj3/g09-16833/Gau-10818.chk"
 ------------------------------------------------------------------
 1H-tetrazole CH2N4 casno=288948 state=1 config=1 method=14 basis=2
 ------------------------------------------------------------------
 Charge =  0 Multiplicity = 1

                         Standard orientation:
 ---------------------------------------------------------------------
 Center     Atomic      Atomic             Coordinates (Angstroms)
 Number     Number       Type             X           Y           Z
 ---------------------------------------------------------------------
      1          6           0       -1.077851   -0.252272    0.000000
      2          7           0        0.000000   -1.079606    0.000000
      3          7           0        1.158000   -0.288658    0.000000
      4          7           0        0.746695    0.958125    0.000000
      5          7           0       -0.691201    1.007810    0.000000
      6          1           0       -2.094171   -0.588273    0.000000
      7          1           0        0.066825   -2.081787    0.000000
 ---------------------------------------------------------------------

 E2 =    -0.5496039776D+00 EUMP2 =    -0.25581561385380D+03
 E2 =    -0.5496271757D+00 EUMP2 =    -0.25581562488274D+03
 E2 =    -0.5495808973D+00 EUMP2 =    -0.25581560172777D+03
 E2 =    -0.5497440389D+00 EUMP2 =    -0.25581569050395D+03
 E2 =    -0.5494640986D+00 EUMP2 =    -0.25581553555206D+03
 E2 =    -0.5496040583D+00 EUMP2 =    -0.25581561368801D+03
 E2 =    -0.5495549449D+00 EUMP2 =    -0.25581558655504D+03
 E2 =    -0.5496531051D+00 EUMP2 =    -0.25581564012691D+03
 E2 =    -0.5497052005D+00 EUMP2 =    -0.25581566595188D+03
 E2 =    -0.5495028690D+00 EUMP2 =    -0.25581555970779D+03
 E2 =    -0.5496040470D+00 EUMP2 =    -0.25581561369304D+03
 SCF Done:  E(RHF) =  -255.266022104     A.U. after    8 cycles
 E2 =    -0.5495854324D+00 EUMP2 =    -0.25581560753656D+03
 SCF Done:  E(RHF) =  -255.265996314     A.U. after    9 cycles
 E2 =    -0.5496225417D+00 EUMP2 =    -0.25581561885613D+03
 SCF Done:  E(RHF) =  -255.266014110     A.U. after    9 cycles
 E2 =    -0.5495972461D+00 EUMP2 =    -0.25581561135627D+03
 SCF Done:  E(RHF) =  -255.266005295     A.U. after    9 cycles
 E2 =    -0.5496107407D+00 EUMP2 =    -0.25581561603595D+03
 SCF Done:  E(RHF) =  -255.266009811     A.U. after    6 cycles
 E2 =    -0.5496039984D+00 EUMP2 =    -0.25581561380984D+03
 SCF Done:  E(RHF) =  -255.266008754     A.U. after    8 cycles
 E2 =    -0.5496061775D+00 EUMP2 =    -0.25581561493107D+03
 SCF Done:  E(RHF) =  -255.266010733     A.U. after    9 cycles
 E2 =    -0.5496018313D+00 EUMP2 =    -0.25581561256413D+03
 SCF Done:  E(RHF) =  -255.266026651     A.U. after    8 cycles
 E2 =    -0.5495719841D+00 EUMP2 =    -0.25581559863553D+03
 SCF Done:  E(RHF) =  -255.265991339     A.U. after    8 cycles
 E2 =    -0.5496360029D+00 EUMP2 =    -0.25581562734155D+03
 SCF Done:  E(RHF) =  -255.266009835     A.U. after    6 cycles
 E2 =    -0.5496039956D+00 EUMP2 =    -0.25581561383094D+03

 Alpha  occ. eigenvalues --  -15.61683 -15.61662 -15.59630 -15.54930 -11.30384
 Alpha  occ. eigenvalues --   -1.49311  -1.24821  -1.21594  -0.90080  -0.88383
 Alpha  occ. eigenvalues --   -0.80403  -0.66924  -0.66488  -0.56038  -0.47825
 Alpha  occ. eigenvalues --   -0.46455  -0.45390  -0.43033
 Alpha virt. eigenvalues --    0.12519   0.17716   0.23347   0.26415   0.35218
 Alpha virt. eigenvalues --    0.38539   0.48056   0.55418   0.63511   0.93179
 Alpha virt. eigenvalues --    0.93675   1.05001   1.09238   1.21168   1.31847

 Mulliken charges:
               1
     1  C    0.362749
     2  N   -0.589733
     3  N   -0.015340
     4  N   -0.074264
     5  N   -0.360063
     6  H    0.286379
     7  H    0.390272
 Sum of Mulliken charges =   0.00000

 Dipole moment (field-independent basis, Debye):
    X=             -2.5506    Y=             -5.0453    Z=              0.0020  Tot=              5.6534
 Quadrupole moment (field-independent basis, Debye-Ang):
   XX=            -29.5930   YY=            -27.2322   ZZ=            -28.8445
   XY=              2.0964   XZ=              0.0001   YZ=             -0.0045

                      1                      2                      3
                     A"                     A"                     A"
 Frequencies --    663.8497               707.3668               720.6342
 Red. masses --      2.9568                 1.4185                 5.8236
 Frc consts  --      0.7677                 0.4182                 1.7818
 IR Inten    --     96.8900                59.6570                25.3081

                      4                      5                      6
                     A'                     A'                     A"
 Frequencies --    828.5804               947.5584               966.9153
 Red. masses --     11.0560                 5.6582                 1.3886
 Frc consts  --      4.4722                 2.9932                 0.7649
 IR Inten    --     12.7831                17.5167                13.3628

                      7                      8                      9
                     A'                     A'                     A'
 Frequencies --   1031.8425              1057.8400              1144.0710
 Red. masses --      5.2939                 6.0129                 3.6639
 Frc consts  --      3.3209                 3.9644                 2.8255
 IR Inten    --      6.6393                 9.9675                 9.9018

                     10                     11                     12
                     A'                     A'                     A'
 Frequencies --   1201.8275              1282.9292              1440.5809
 Red. masses --      3.6074                 2.0816                 2.4661
 Frc consts  --      3.0700                 2.0186                 3.0153
 IR Inten    --     10.8134                 8.2662                10.6009

                     13                     14                     15
                     A'                     A'                     A'
 Frequencies --   1520.1305              3400.6644              3728.3194
 Red. masses --      2.1773                 1.1011                 1.0846
 Frc consts  --      2.9643                 7.5027                 8.8829
 IR Inten    --     47.0856                 2.0769               141.1602

 - Thermochemistry -
 -------------------
 Temperature   298.150 Kelvin.  Pressure   1.00000 Atm.
 Atom     1 has atomic number  6 and mass  12.00000

 Molecular mass:    70.02795 amu.
 Principal axes and moments of inertia in atomic units:
                           1         2         3
     Eigenvalues --   178.32236 184.24132 362.56368
           X            0.99694   0.07811   0.00000
           Y           -0.07811   0.99694   0.00000
           Z            0.00000   0.00000   1.00000
 This molecule is an asymmetric top.
 Rotational symmetry number  1.
 Rotational temperatures (Kelvin)      0.48571     0.47011     0.23889
 Rotational constants (GHZ):          10.12067     9.79553     4.97772
 Zero-point vibrational energy     123473.2 (Joules/Mol)
                                   29.51081 (Kcal/Mol)
 Vibrational temperatures:    955.13  1017.74  1036.83  1192.14  1363.32
          (Kelvin)           1391.17  1484.59  1521.99  1646.06  1729.16
                             1845.85  2072.67  2187.13  4892.79  5364.21

 Zero-point correction=                           0.047028 (Hartree/Particle)
 Thermal correction to Energy=                    0.050483
 Thermal correction to Enthalpy=                  0.051427
 Thermal correction to Gibbs Free Energy=         0.020880
 Sum of electronic and zero-point Energies=           -255.688215
 Sum of electronic and thermal Energies=              -255.684760
 Sum of electronic and thermal Enthalpies=            -255.683816
 Sum of electronic and thermal Free Energies=         -255.714363

                     E (Thermal)             CV                S
                      KCal/Mol        Cal/Mol-Kelvin    Cal/Mol-Kelvin
 Total                   31.679             11.353             64.292
 Electronic               0.000              0.000              0.000
 Translational            0.889              2.981             38.656
 Rotational               0.889              2.981             23.992
 Vibrational             29.901              5.392              1.644

 Normal termination of Gaussian 09 at Mon Nov 25 17:48:48 2013.
