 Gaussian 09, Revision D.01,
 Gaussian 09:  EM64L-G09RevD.01 24-Apr-2013

 ---------------------
 #CID/6-311G* opt freq
 ---------------------

 ------------------------------------------------------------------
 1H-tetrazole CH2N4 casno=288948 state=1 config=1 method=14 basis=7
 ------------------------------------------------------------------
 Symbolic Z-matrix:
 Charge =  0 Multiplicity = 1

 SCF Done:  E(RHF) =  -256.810747258     A.U. after   14 cycles
 E2 =    -0.8105285881D+00 EUMP2 =    -0.25762127584607D+03
 SCF Done:  E(RHF) =  -256.809876343     A.U. after   11 cycles
 E2 =    -0.8143246181D+00 EUMP2 =    -0.25762420096077D+03
 SCF Done:  E(RHF) =  -256.809836987     A.U. after   10 cycles
 E2 =    -0.8144564322D+00 EUMP2 =    -0.25762429341869D+03
 SCF Done:  E(RHF) =  -256.809827930     A.U. after    9 cycles
 E2 =    -0.8144868785D+00 EUMP2 =    -0.25762431480812D+03
 SCF Done:  E(RHF) =  -256.809831900     A.U. after    8 cycles
 E2 =    -0.8144765132D+00 EUMP2 =    -0.25762430841288D+03
 Optimization completed.
    -- Stationary point found.
 Normal termination of Gaussian 09 at Mon Dec 16 14:07:39 2013.

 ----------------------------------------------------------------------
 #N Geom=AllCheck Guess=TCheck SCRF=Check GenChk RCID(FC)/6-311G(d) Fre
 q
 ----------------------------------------------------------------------

 Structure from the checkpoint file:  "/tmp/rdj3/g09-9462/Gau-15490.chk"
 ------------------------------------------------------------------
 1H-tetrazole CH2N4 casno=288948 state=1 config=1 method=14 basis=7
 ------------------------------------------------------------------
 Charge =  0 Multiplicity = 1

                         Standard orientation:
 ---------------------------------------------------------------------
 Center     Atomic      Atomic             Coordinates (Angstroms)
 Number     Number       Type             X           Y           Z
 ---------------------------------------------------------------------
      1          6           0        1.057477    0.227615    0.000000
      2          7           0        0.000000    1.043719    0.000000
      3          7           0       -1.101990    0.299446    0.000000
      4          7           0       -0.718754   -0.910249    0.000000
      5          7           0        0.625744   -0.997528    0.000000
      6          1           0        2.081059    0.546946    0.000000
      7          1           0       -0.060923    2.039642    0.000000
 ---------------------------------------------------------------------

 SCF Done:  E(RHF) =  -256.809831900     A.U. after    1 cycles
 E2 =    -0.8144765151D+00 EUMP2 =    -0.25762430841476D+03
 SCF Done:  E(RHF) =  -256.809814225     A.U. after    9 cycles
 E2 =    -0.8145239445D+00 EUMP2 =    -0.25762433816970D+03
 SCF Done:  E(RHF) =  -256.809845888     A.U. after    9 cycles
 E2 =    -0.8144293447D+00 EUMP2 =    -0.25762427523314D+03
 SCF Done:  E(RHF) =  -256.809814171     A.U. after    9 cycles
 E2 =    -0.8145201630D+00 EUMP2 =    -0.25762433433400D+03
 SCF Done:  E(RHF) =  -256.809846919     A.U. after   10 cycles
 E2 =    -0.8144329326D+00 EUMP2 =    -0.25762427985156D+03
 E2 =    -0.8144766390D+00 EUMP2 =    -0.25762430820370D+03
 E2 =    -0.8144842738D+00 EUMP2 =    -0.25762431215177D+03
 E2 =    -0.8144688999D+00 EUMP2 =    -0.25762430236974D+03
 E2 =    -0.8144950890D+00 EUMP2 =    -0.25762432116449D+03
 E2 =    -0.8144581707D+00 EUMP2 =    -0.25762429171725D+03
 E2 =    -0.8144765829D+00 EUMP2 =    -0.25762430827405D+03
 E2 =    -0.8143938252D+00 EUMP2 =    -0.25762425465091D+03
 E2 =    -0.8145594425D+00 EUMP2 =    -0.25762436010510D+03
 E2 =    -0.8145805363D+00 EUMP2 =    -0.25762436996959D+03
 E2 =    -0.8143726074D+00 EUMP2 =    -0.25762424470328D+03
 E2 =    -0.8144688972D+00 EUMP2 =    -0.25762430303633D+03
 E2 =    -0.8144842841D+00 EUMP2 =    -0.25762431206944D+03
 E2 =    -0.8143537249D+00 EUMP2 =    -0.25762423195135D+03
 E2 =    -0.8145995205D+00 EUMP2 =    -0.25762438247150D+03
 E2 =    -0.8144766144D+00 EUMP2 =    -0.25762430822792D+03
 E2 =    -0.8145007522D+00 EUMP2 =    -0.25762432182314D+03
 E2 =    -0.8144524053D+00 EUMP2 =    -0.25762429341015D+03
 E2 =    -0.8143957090D+00 EUMP2 =    -0.25762425626067D+03
 E2 =    -0.8145574773D+00 EUMP2 =    -0.25762435815556D+03
 E2 =    -0.8144765933D+00 EUMP2 =    -0.25762430824626D+03
 SCF Done:  E(RHF) =  -256.809824901     A.U. after    7 cycles
 E2 =    -0.8144915076D+00 EUMP2 =    -0.25762431640900D+03
 SCF Done:  E(RHF) =  -256.809837541     A.U. after    8 cycles
 E2 =    -0.8144615770D+00 EUMP2 =    -0.25762429911835D+03
 SCF Done:  E(RHF) =  -256.809829749     A.U. after    7 cycles
 E2 =    -0.8144815195D+00 EUMP2 =    -0.25762431126862D+03
 SCF Done:  E(RHF) =  -256.809833718     A.U. after    8 cycles
 E2 =    -0.8144715625D+00 EUMP2 =    -0.25762430528062D+03
 SCF Done:  E(RHF) =  -256.809831843     A.U. after    7 cycles
 E2 =    -0.8144765430D+00 EUMP2 =    -0.25762430838628D+03
 SCF Done:  E(RHF) =  -256.809833415     A.U. after    7 cycles
 E2 =    -0.8144729194D+00 EUMP2 =    -0.25762430633416D+03
 SCF Done:  E(RHF) =  -256.809830103     A.U. after    8 cycles
 E2 =    -0.8144801939D+00 EUMP2 =    -0.25762431029708D+03
 SCF Done:  E(RHF) =  -256.809816811     A.U. after    7 cycles
 E2 =    -0.8145093315D+00 EUMP2 =    -0.25762432614269D+03
 SCF Done:  E(RHF) =  -256.809845110     A.U. after    8 cycles
 E2 =    -0.8144437545D+00 EUMP2 =    -0.25762428886456D+03
 SCF Done:  E(RHF) =  -256.809831864     A.U. after    6 cycles
 E2 =    -0.8144765385D+00 EUMP2 =    -0.25762430840288D+03

 Alpha  occ. eigenvalues --  -15.67971 -15.65616 -15.63729 -15.59621 -11.33471
 Alpha  occ. eigenvalues --   -1.51323  -1.26532  -1.20436  -0.91388  -0.89551
 Alpha  occ. eigenvalues --   -0.80774  -0.68514  -0.68263  -0.57162  -0.47799
 Alpha  occ. eigenvalues --   -0.46753  -0.45809  -0.42186
 Alpha virt. eigenvalues --    0.12781   0.14224   0.16820   0.19128   0.33448
 Alpha virt. eigenvalues --    0.36690   0.37950   0.47267   0.53113   0.56344
 Alpha virt. eigenvalues --    0.61826   0.64176   0.69271   0.74939   0.77575

 Mulliken charges:
               1
     1  C    0.141594
     2  N   -0.452535
     3  N   -0.012931
     4  N   -0.082977
     5  N   -0.262713
     6  H    0.273308
     7  H    0.396254
 Sum of Mulliken charges =   0.00000

 Dipole moment (field-independent basis, Debye):
    X=              2.5950    Y=              4.9685    Z=              0.0018  Tot=              5.6053
 Quadrupole moment (field-independent basis, Debye-Ang):
   XX=            -28.9276   YY=            -26.5349   ZZ=            -28.4674
   XY=              1.9001   XZ=             -0.0001   YZ=              0.0041

                      1                      2                      3
                     A"                     A"                     A"
 Frequencies --    626.2221               730.6577               780.0925
 Red. masses --      1.8948                 1.8576                 7.6290
 Frc consts  --      0.4378                 0.5843                 2.7353
 IR Inten    --    101.5738                13.8799                11.1260

                      4                      5                      6
                     A"                     A'                     A'
 Frequencies --    933.7267              1045.7489              1073.9719
 Red. masses --      1.3688                 4.6204                 6.5007
 Frc consts  --      0.7031                 2.9770                 4.4177
 IR Inten    --     16.9252                 2.7007                 1.9309

                      7                      8                      9
                     A'                     A'                     A'
 Frequencies --   1152.4186              1174.8052              1218.5595
 Red. masses --      3.8748                 2.8123                 2.1173
 Frc consts  --      3.0320                 2.2869                 1.8523
 IR Inten    --     22.5679                34.5699                10.0584

                     10                     11                     12
                     A'                     A'                     A'
 Frequencies --   1368.8893              1443.9743              1575.0225
 Red. masses --      3.0140                 7.7064                 3.3663
 Frc consts  --      3.3276                 9.4672                 4.9202
 IR Inten    --      0.2587                24.7734                12.9087

                     13                     14                     15
                     A'                     A'                     A'
 Frequencies --   1635.6948              3406.7663              3848.4666
 Red. masses --      3.3215                 1.1033                 1.0845
 Frc consts  --      5.2358                 7.5446                 9.4639
 IR Inten    --     22.4089                 0.8017               114.9418

 - Thermochemistry -
 -------------------
 Temperature   298.150 Kelvin.  Pressure   1.00000 Atm.
 Atom     1 has atomic number  6 and mass  12.00000

 Molecular mass:    70.02795 amu.
 Principal axes and moments of inertia in atomic units:
                           1         2         3
     Eigenvalues --   167.30023 170.23634 337.53657
           X            0.85657   0.51603   0.00000
           Y           -0.51603   0.85657   0.00000
           Z            0.00000   0.00000   1.00000
 This molecule is an asymmetric top.
 Rotational symmetry number  1.
 Rotational temperatures (Kelvin)      0.51771     0.50879     0.25661
 Rotational constants (GHZ):          10.78744    10.60139     5.34680
 Zero-point vibrational energy     131679.0 (Joules/Mol)
                                   31.47205 (Kcal/Mol)
 Vibrational temperatures:    900.99  1051.25  1122.38  1343.42  1504.60
          (Kelvin)           1545.20  1658.07  1690.28  1753.23  1969.52
                             2077.55  2266.10  2353.40  4901.57  5537.08

 Zero-point correction=                           0.050154 (Hartree/Particle)
 Thermal correction to Energy=                    0.053499
 Thermal correction to Enthalpy=                  0.054443
 Thermal correction to Gibbs Free Energy=         0.024134
 Sum of electronic and zero-point Energies=           -257.443781
 Sum of electronic and thermal Energies=              -257.440435
 Sum of electronic and thermal Enthalpies=            -257.439491
 Sum of electronic and thermal Free Energies=         -257.469801

                     E (Thermal)             CV                S
                      KCal/Mol        Cal/Mol-Kelvin    Cal/Mol-Kelvin
 Total                   33.571             10.448             63.792
 Electronic               0.000              0.000              0.000
 Translational            0.889              2.981             38.656
 Rotational               0.889              2.981             23.779
 Vibrational             31.794              4.486              1.357

 Optimization completed.
    -- Stationary point found.
 Normal termination of Gaussian 09 at Mon Dec 16 15:02:33 2013.
