 Gaussian 09, Revision D.01,
 Gaussian 09:  EM64L-G09RevD.01 24-Apr-2013

 -----------------------------
 #CID/6-31G* opt=z-matrix freq
 -----------------------------

 ------------------------------------------------------------------
 1H-tetrazole CH2N4 casno=288948 state=1 config=1 method=14 basis=1
 ------------------------------------------------------------------
 Symbolic Z-matrix:
 Charge =  0 Multiplicity = 1

 SCF Done:  E(RHF) =  -256.754076285     A.U. after   15 cycles
 E2 =    -0.7737063668D+00 EUMP2 =    -0.25752778265216D+03
 SCF Done:  E(RHF) =  -256.752796289     A.U. after   12 cycles
 E2 =    -0.7796960138D+00 EUMP2 =    -0.25753249230274D+03
 SCF Done:  E(RHF) =  -256.752889613     A.U. after   11 cycles
 E2 =    -0.7794820628D+00 EUMP2 =    -0.25753237167604D+03
 SCF Done:  E(RHF) =  -256.752728502     A.U. after   11 cycles
 E2 =    -0.7799009916D+00 EUMP2 =    -0.25753262949376D+03
 SCF Done:  E(RHF) =  -256.752286813     A.U. after   12 cycles
 E2 =    -0.7796560228D+00 EUMP2 =    -0.25753194283599D+03
 SCF Done:  E(RHF) =  -256.752743704     A.U. after    9 cycles
 E2 =    -0.7798835909D+00 EUMP2 =    -0.25753262729509D+03
 SCF Done:  E(RHF) =  -256.752712227     A.U. after   10 cycles
 E2 =    -0.7799097886D+00 EUMP2 =    -0.25753262201596D+03
 SCF Done:  E(RHF) =  -256.752748679     A.U. after    7 cycles
 E2 =    -0.7798727066D+00 EUMP2 =    -0.25753262138559D+03
 SCF Done:  E(RHF) =  -256.752750108     A.U. after    9 cycles
 E2 =    -0.7798698260D+00 EUMP2 =    -0.25753261993370D+03
 SCF Done:  E(RHF) =  -256.752742776     A.U. after    9 cycles
 E2 =    -0.7798817245D+00 EUMP2 =    -0.25753262450031D+03
 E2 =    -0.7798671133D+00 EUMP2 =    -0.25753261832820D+03
 E2 =    -0.7798467512D+00 EUMP2 =    -0.25753260199999D+03
 E2 =    -0.7798659228D+00 EUMP2 =    -0.25753261761826D+03
 Optimization completed.
    -- Stationary point found.
 Normal termination of Gaussian 09 at Mon Nov 25 17:19:01 2013.

 ----------------------------------------------------------------------
 #N Geom=AllCheck Guess=TCheck SCRF=Check GenChk RCID(FC)/6-31G(d) Freq
 ----------------------------------------------------------------------

 Structure from the checkpoint file:  "/tmp/rdj3/g09-16833/Gau-5160.chk"
 ------------------------------------------------------------------
 1H-tetrazole CH2N4 casno=288948 state=1 config=1 method=14 basis=1
 ------------------------------------------------------------------
 Charge =  0 Multiplicity = 1

                         Standard orientation:
 ---------------------------------------------------------------------
 Center     Atomic      Atomic             Coordinates (Angstroms)
 Number     Number       Type             X           Y           Z
 ---------------------------------------------------------------------
      1          6           0        1.059539    0.231061    0.000000
      2          7           0        0.000000    1.045098    0.000000
      3          7           0       -1.107063    0.299738    0.000000
      4          7           0       -0.718957   -0.915615    0.000000
      5          7           0        0.629179   -0.998557    0.000000
      6          1           0        2.083134    0.552641    0.000000
      7          1           0       -0.062476    2.046339    0.000000
 ---------------------------------------------------------------------

 E2 =    -0.7798659201D+00 EUMP2 =    -0.25753261761556D+03
 E2 =    -0.7799153671D+00 EUMP2 =    -0.25753264736539D+03
 E2 =    -0.7798166808D+00 EUMP2 =    -0.25753258435906D+03
 E2 =    -0.7799097924D+00 EUMP2 =    -0.25753264278821D+03
 E2 =    -0.7798220507D+00 EUMP2 =    -0.25753258971950D+03
 E2 =    -0.7798660417D+00 EUMP2 =    -0.25753261739897D+03
 E2 =    -0.7798776816D+00 EUMP2 =    -0.25753262238863D+03
 E2 =    -0.7798537861D+00 EUMP2 =    -0.25753261097694D+03
 E2 =    -0.7798781523D+00 EUMP2 =    -0.25753262249463D+03
 E2 =    -0.7797347033D+00 EUMP2 =    -0.25753254007437D+03
 E2 =    -0.7799973015D+00 EUMP2 =    -0.25753269274462D+03
 E2 =    -0.7798660090D+00 EUMP2 =    -0.25753261741663D+03
 E2 =    -0.7798962863D+00 EUMP2 =    -0.25753263237259D+03
 E2 =    -0.7798356268D+00 EUMP2 =    -0.25753260121150D+03
 E2 =    -0.7797837804D+00 EUMP2 =    -0.25753256679878D+03
 E2 =    -0.7799481761D+00 EUMP2 =    -0.25753266598544D+03
 E2 =    -0.7798659884D+00 EUMP2 =    -0.25753261743585D+03
 SCF Done:  E(RHF) =  -256.752743363     A.U. after    7 cycles
 E2 =    -0.7798824356D+00 EUMP2 =    -0.25753262579873D+03
 SCF Done:  E(RHF) =  -256.752758654     A.U. after    8 cycles
 E2 =    -0.7798494318D+00 EUMP2 =    -0.25753260808536D+03
 SCF Done:  E(RHF) =  -256.752749111     A.U. after    8 cycles
 E2 =    -0.7798715309D+00 EUMP2 =    -0.25753262064192D+03
 SCF Done:  E(RHF) =  -256.752753942     A.U. after    9 cycles
 E2 =    -0.7798603351D+00 EUMP2 =    -0.25753261427734D+03
 SCF Done:  E(RHF) =  -256.752751638     A.U. after    7 cycles
 E2 =    -0.7798659379D+00 EUMP2 =    -0.25753261757571D+03
 SCF Done:  E(RHF) =  -256.752753322     A.U. after    7 cycles
 E2 =    -0.7798622704D+00 EUMP2 =    -0.25753261559232D+03
 SCF Done:  E(RHF) =  -256.752749792     A.U. after    8 cycles
 E2 =    -0.7798696323D+00 EUMP2 =    -0.25753261942410D+03
 SCF Done:  E(RHF) =  -256.752734101     A.U. after    7 cycles
 E2 =    -0.7799009376D+00 EUMP2 =    -0.25753263503837D+03
 SCF Done:  E(RHF) =  -256.752767453     A.U. after    8 cycles
 E2 =    -0.7798309277D+00 EUMP2 =    -0.25753259838062D+03
 SCF Done:  E(RHF) =  -256.752751660     A.U. after    6 cycles
 E2 =    -0.7798659328D+00 EUMP2 =    -0.25753261759278D+03

 Alpha  occ. eigenvalues --  -15.68781 -15.66479 -15.64623 -15.60422 -11.33774
 Alpha  occ. eigenvalues --   -1.50770  -1.26202  -1.20124  -0.91077  -0.89309
 Alpha  occ. eigenvalues --   -0.80462  -0.68186  -0.67989  -0.56954  -0.47645
 Alpha  occ. eigenvalues --   -0.46680  -0.45589  -0.41954
 Alpha virt. eigenvalues --    0.14524   0.19529   0.19846   0.25439   0.37204
 Alpha virt. eigenvalues --    0.39126   0.48294   0.50575   0.66112   0.73749
 Alpha virt. eigenvalues --    0.74072   0.82454   0.83184   0.90051   0.91743

 Mulliken charges:
               1
     1  C    0.254049
     2  N   -0.487845
     3  N   -0.028470
     4  N   -0.078066
     5  N   -0.321129
     6  H    0.244481
     7  H    0.416980
 Sum of Mulliken charges =   0.00000

 Dipole moment (field-independent basis, Debye):
    X=              2.6189    Y=              4.9602    Z=              0.0018  Tot=              5.6091
 Quadrupole moment (field-independent basis, Debye-Ang):
   XX=            -28.8244   YY=            -26.4195   ZZ=            -28.4741
   XY=              1.9120   XZ=             -0.0001   YZ=              0.0041

                      1                      2                      3
                     A"                     A"                     A"
 Frequencies --    618.6479               727.0073               778.6622
 Red. masses --      1.8215                 1.9427                 7.9616
 Frc consts  --      0.4107                 0.6050                 2.8441
 IR Inten    --    108.9829                11.9223                10.5936

                      4                      5                      6
                     A"                     A'                     A'
 Frequencies --    928.4480              1043.8515              1072.2948
 Red. masses --      1.3539                 4.8602                 6.2873
 Frc consts  --      0.6876                 3.1202                 4.2593
 IR Inten    --     15.8017                 2.2805                 2.1771

                      7                      8                      9
                     A'                     A'                     A'
 Frequencies --   1158.0642              1170.1488              1223.5279
 Red. masses --      4.4898                 2.8425                 1.8933
 Frc consts  --      3.5477                 2.2932                 1.6700
 IR Inten    --     18.8508                36.4111                11.3548

                     10                     11                     12
                     A'                     A'                     A'
 Frequencies --   1371.7909              1438.9916              1576.4395
 Red. masses --      2.8090                 8.6036                 3.2347
 Frc consts  --      3.1144                10.4965                 4.7363
 IR Inten    --      0.0617                24.4825                14.2427

                     13                     14                     15
                     A'                     A'                     A'
 Frequencies --   1631.8493              3431.4315              3810.7258
 Red. masses --      3.7429                 1.1031                 1.0849
 Frc consts  --      5.8724                 7.6524                 9.2821
 IR Inten    --     22.6939                 1.2771               129.7043

 - Thermochemistry -
 -------------------
 Temperature   298.150 Kelvin.  Pressure   1.00000 Atm.
 Atom     1 has atomic number  6 and mass  12.00000

 Molecular mass:    70.02795 amu.
 Principal axes and moments of inertia in atomic units:
                           1         2         3
     Eigenvalues --   168.35140 171.12558 339.47698
           X            0.87262   0.48841   0.00000
           Y           -0.48841   0.87262   0.00000
           Z            0.00000   0.00000   1.00000
 This molecule is an asymmetric top.
 Rotational symmetry number  1.
 Rotational temperatures (Kelvin)      0.51448     0.50614     0.25514
 Rotational constants (GHZ):          10.72008    10.54630     5.31624
 Zero-point vibrational energy     131480.8 (Joules/Mol)
                                   31.42468 (Kcal/Mol)
 Warning -- explicit consideration of   1 degrees of freedom as
           vibrations may cause significant error
 Vibrational temperatures:    890.10  1046.00  1120.32  1335.83  1501.87
          (Kelvin)           1542.79  1666.19  1683.58  1760.38  1973.70
                             2070.39  2268.14  2347.86  4937.06  5482.78

 Zero-point correction=                           0.050078 (Hartree/Particle)
 Thermal correction to Energy=                    0.053430
 Thermal correction to Enthalpy=                  0.054375
 Thermal correction to Gibbs Free Energy=         0.024048
 Sum of electronic and zero-point Energies=           -257.361470
 Sum of electronic and thermal Energies=              -257.358118
 Sum of electronic and thermal Enthalpies=            -257.357174
 Sum of electronic and thermal Free Energies=         -257.387501

                     E (Thermal)             CV                S
                      KCal/Mol        Cal/Mol-Kelvin    Cal/Mol-Kelvin
 Total                   33.528             10.480             63.828
 Electronic               0.000              0.000              0.000
 Translational            0.889              2.981             38.656
 Rotational               0.889              2.981             23.796
 Vibrational             31.751              4.518              1.377
 Vibration     1          0.979              0.993              0.419

 Optimization completed.
    -- Stationary point found.
 Normal termination of Gaussian 09 at Mon Nov 25 17:41:47 2013.
