 Gaussian 09, Revision D.01,
 Gaussian 09:  EM64L-G09RevD.01 24-Apr-2013

 ----------------------------
 #CID/6-31G opt=z-matrix freq
 ----------------------------

 ------------------------------------------------------------------
 1H-tetrazole CH2N4 casno=288948 state=1 config=1 method=14 basis=9
 ------------------------------------------------------------------
 Symbolic Z-matrix:
 Charge =  0 Multiplicity = 1

 SCF Done:  E(RHF) =  -256.588556245     A.U. after   15 cycles
 E2 =    -0.5280571919D+00 EUMP2 =    -0.25711661343668D+03
 SCF Done:  E(RHF) =  -256.588588109     A.U. after   14 cycles
 E2 =    -0.5487572570D+00 EUMP2 =    -0.25713734536590D+03
 SCF Done:  E(RHF) =  -256.587665851     A.U. after   13 cycles
 E2 =    -0.5509146858D+00 EUMP2 =    -0.25713858053667D+03
 SCF Done:  E(RHF) =  -256.588169597     A.U. after   12 cycles
 E2 =    -0.5481184835D+00 EUMP2 =    -0.25713628808098D+03
 SCF Done:  E(RHF) =  -256.587729830     A.U. after   12 cycles
 E2 =    -0.5513924493D+00 EUMP2 =    -0.25713912227900D+03
 SCF Done:  E(RHF) =  -256.587742856     A.U. after   13 cycles
 E2 =    -0.5494038755D+00 EUMP2 =    -0.25713714673098D+03
 SCF Done:  E(RHF) =  -256.587301044     A.U. after   14 cycles
 E2 =    -0.5515097085D+00 EUMP2 =    -0.25713881075287D+03
 SCF Done:  E(RHF) =  -256.587727165     A.U. after    6 cycles
 E2 =    -0.5513979203D+00 EUMP2 =    -0.25713912508537D+03
 SCF Done:  E(RHF) =  -256.588022781     A.U. after   12 cycles
 E2 =    -0.5507144595D+00 EUMP2 =    -0.25713873724101D+03
 SCF Done:  E(RHF) =  -256.587663300     A.U. after   11 cycles
 E2 =    -0.5515837476D+00 EUMP2 =    -0.25713924704799D+03
 E2 =    -0.5507402170D+00 EUMP2 =    -0.25713880143802D+03
 E2 =    -0.5514723997D+00 EUMP2 =    -0.25713919383729D+03
 E2 =    -0.5510010169D+00 EUMP2 =    -0.25713893726627D+03
 E2 =    -0.5514741121D+00 EUMP2 =    -0.25713919570098D+03
 E2 =    -0.5514154070D+00 EUMP2 =    -0.25713916547344D+03
 E2 =    -0.5514452597D+00 EUMP2 =    -0.25713918135393D+03
 E2 =    -0.5512420742D+00 EUMP2 =    -0.25713907604776D+03
 E2 =    -0.5514366725D+00 EUMP2 =    -0.25713917716332D+03
 E2 =    -0.5514456598D+00 EUMP2 =    -0.25713918257354D+03
 E2 =    -0.5514273440D+00 EUMP2 =    -0.25713917251202D+03
 Optimization completed.
    -- Stationary point found.
 Normal termination of Gaussian 09 at Mon Nov 25 18:27:28 2013.

 -------------------------------------------------------------------
 #N Geom=AllCheck Guess=TCheck SCRF=Check GenChk RCID(FC)/6-31G Freq
 -------------------------------------------------------------------

 Structure from the checkpoint file:  "/tmp/rdj3/g09-16833/Gau-25935.chk"
 ------------------------------------------------------------------
 1H-tetrazole CH2N4 casno=288948 state=1 config=1 method=14 basis=9
 ------------------------------------------------------------------
 Charge =  0 Multiplicity = 1

                         Standard orientation:
 ---------------------------------------------------------------------
 Center     Atomic      Atomic             Coordinates (Angstroms)
 Number     Number       Type             X           Y           Z
 ---------------------------------------------------------------------
      1          6           0        1.082535    0.247193    0.000000
      2          7           0        0.000000    1.066677    0.000000
      3          7           0       -1.138757    0.297108    0.000000
      4          7           0       -0.739692   -0.943191    0.000000
      5          7           0        0.658748   -1.008743    0.000000
      6          1           0        2.106213    0.568142    0.000000
      7          1           0       -0.063517    2.065741    0.000000
 ---------------------------------------------------------------------

 E2 =    -0.5513884642D+00 EUMP2 =    -0.25713915331454D+03
 E2 =    -0.5514579442D+00 EUMP2 =    -0.25713918616384D+03
 E2 =    -0.5512694756D+00 EUMP2 =    -0.25713908742771D+03
 E2 =    -0.5515770098D+00 EUMP2 =    -0.25713925136646D+03
 E2 =    -0.5514232586D+00 EUMP2 =    -0.25713917020118D+03
 E2 =    -0.5514808037D+00 EUMP2 =    -0.25713919964248D+03
 E2 =    -0.5513655746D+00 EUMP2 =    -0.25713913990420D+03
 E2 =    -0.5513157851D+00 EUMP2 =    -0.25713911418647D+03
 E2 =    -0.5515306557D+00 EUMP2 =    -0.25713922442292D+03
 E2 =    -0.5514232427D+00 EUMP2 =    -0.25713917021227D+03
 SCF Done:  E(RHF) =  -256.587730329     A.U. after    8 cycles
 E2 =    -0.5514466080D+00 EUMP2 =    -0.25713917693666D+03
 SCF Done:  E(RHF) =  -256.587762755     A.U. after    9 cycles
 E2 =    -0.5513997138D+00 EUMP2 =    -0.25713916246908D+03
 SCF Done:  E(RHF) =  -256.587741888     A.U. after    8 cycles
 E2 =    -0.5514308853D+00 EUMP2 =    -0.25713917277289D+03
 SCF Done:  E(RHF) =  -256.587752209     A.U. after   10 cycles
 E2 =    -0.5514154580D+00 EUMP2 =    -0.25713916766728D+03
 SCF Done:  E(RHF) =  -256.587747155     A.U. after    6 cycles
 E2 =    -0.5514231830D+00 EUMP2 =    -0.25713917033800D+03
 SCF Done:  E(RHF) =  -256.587748823     A.U. after    8 cycles
 E2 =    -0.5514197870D+00 EUMP2 =    -0.25713916860979D+03
 SCF Done:  E(RHF) =  -256.587745326     A.U. after    9 cycles
 E2 =    -0.5514265850D+00 EUMP2 =    -0.25713917191100D+03
 SCF Done:  E(RHF) =  -256.587723954     A.U. after    8 cycles
 E2 =    -0.5514617914D+00 EUMP2 =    -0.25713918574489D+03
 SCF Done:  E(RHF) =  -256.587768646     A.U. after    9 cycles
 E2 =    -0.5513845288D+00 EUMP2 =    -0.25713915317446D+03
 SCF Done:  E(RHF) =  -256.587747170     A.U. after    6 cycles
 E2 =    -0.5514231788D+00 EUMP2 =    -0.25713917034852D+03

 Alpha  occ. eigenvalues --  -15.70042 -15.69862 -15.67803 -15.63695 -11.36839
 Alpha  occ. eigenvalues --   -1.52415  -1.27260  -1.22870  -0.91948  -0.89982
 Alpha  occ. eigenvalues --   -0.81369  -0.68384  -0.68341  -0.57111  -0.48235
 Alpha  occ. eigenvalues --   -0.47928  -0.46614  -0.43489
 Alpha virt. eigenvalues --    0.11151   0.16270   0.19190   0.23854   0.34193
 Alpha virt. eigenvalues --    0.34927   0.44241   0.47790   0.61243   0.73389
 Alpha virt. eigenvalues --    0.76579   0.84446   0.88442   0.91083   0.91501

 Mulliken charges:
               1
     1  C    0.333447
     2  N   -0.627080
     3  N    0.034321
     4  N   -0.086092
     5  N   -0.319273
     6  H    0.254865
     7  H    0.409812
 Sum of Mulliken charges =   0.00000

 Dipole moment (field-independent basis, Debye):
    X=              2.8430    Y=              5.3197    Z=              0.0021  Tot=              6.0318
 Quadrupole moment (field-independent basis, Debye-Ang):
   XX=            -30.4110   YY=            -28.2177   ZZ=            -29.1648
   XY=              2.1893   XZ=             -0.0001   YZ=              0.0047

                      1                      2                      3
                     A"                     A"                     A"
 Frequencies --    688.5749               743.2426               750.2895
 Red. masses --      4.3349                 7.3539                 1.1862
 Frc consts  --      1.2110                 2.3935                 0.3934
 IR Inten    --     27.0472                 6.8588               156.4954

                      4                      5                      6
                     A"                     A'                     A'
 Frequencies --    905.7969               910.7650              1025.6141
 Red. masses --      1.3838                 9.5008                 4.8801
 Frc consts  --      0.6689                 4.6432                 3.0244
 IR Inten    --     17.8865                 8.2620                22.7874

                      7                      8                      9
                     A'                     A'                     A'
 Frequencies --   1051.8752              1083.4006              1188.9300
 Red. masses --      7.0453                 4.7779                 1.9841
 Frc consts  --      4.5928                 3.3042                 1.6525
 IR Inten    --      2.0070                14.1184                17.1123

                     10                     11                     12
                     A'                     A'                     A'
 Frequencies --   1293.8545              1307.2654              1490.4742
 Red. masses --      3.7563                 3.6074                 2.9814
 Frc consts  --      3.7049                 3.6322                 3.9023
 IR Inten    --     13.3399                 3.6481                 8.0953

                     13                     14                     15
                     A'                     A'                     A'
 Frequencies --   1571.4085              3418.6452              3821.2702
 Red. masses --      2.1055                 1.1042                 1.0850
 Frc consts  --      3.0633                 7.6032                 9.3346
 IR Inten    --     46.1237                 4.0721               140.0980

 - Thermochemistry -
 -------------------
 Temperature   298.150 Kelvin.  Pressure   1.00000 Atm.
 Atom     1 has atomic number  6 and mass  12.00000

 Molecular mass:    70.02795 amu.
 Principal axes and moments of inertia in atomic units:
                           1         2         3
     Eigenvalues --   175.45835 179.90664 355.36499
           X            0.99867   0.05165   0.00000
           Y           -0.05165   0.99867   0.00000
           Z            0.00000   0.00000   1.00000
 This molecule is an asymmetric top.
 Rotational symmetry number  1.
 Rotational temperatures (Kelvin)      0.49364     0.48144     0.24373
 Rotational constants (GHZ):          10.28587    10.03154     5.07856
 Zero-point vibrational energy     127111.6 (Joules/Mol)
                                   30.38041 (Kcal/Mol)
 Vibrational temperatures:    990.70  1069.36  1079.50  1303.24  1310.39
          (Kelvin)           1475.63  1513.41  1558.77  1710.60  1861.57
                             1880.86  2144.46  2260.90  4918.66  5497.95

 Zero-point correction=                           0.048414 (Hartree/Particle)
 Thermal correction to Energy=                    0.051798
 Thermal correction to Enthalpy=                  0.052742
 Thermal correction to Gibbs Free Energy=         0.022317
 Sum of electronic and zero-point Energies=           -257.008231
 Sum of electronic and thermal Energies=              -257.004848
 Sum of electronic and thermal Enthalpies=            -257.003903
 Sum of electronic and thermal Free Energies=         -257.034328

                     E (Thermal)             CV                S
                      KCal/Mol        Cal/Mol-Kelvin    Cal/Mol-Kelvin
 Total                   32.504             10.887             64.034
 Electronic               0.000              0.000              0.000
 Translational            0.889              2.981             38.656
 Rotational               0.889              2.981             23.932
 Vibrational             30.726              4.926              1.446

 Optimization completed.
    -- Stationary point found.
 Normal termination of Gaussian 09 at Mon Nov 25 18:32:45 2013.
