 Gaussian 09, Revision D.01,
 Gaussian 09:  EM64L-G09RevD.01 24-Apr-2013

 -----------------------------
 #CISD/6-31G opt=z-matrix freq
 -----------------------------

 ------------------------------------------------------------------
 1H-tetrazole CH2N4 casno=288948 state=1 config=1 method=15 basis=9
 ------------------------------------------------------------------
 Symbolic Z-matrix:
 Charge =  0 Multiplicity = 1

 SCF Done:  E(RHF) =  -256.588556245     A.U. after   15 cycles
 E2 =    -0.5280571919D+00 EUMP2 =    -0.25711661343668D+03
 SCF Done:  E(RHF) =  -256.588458683     A.U. after   14 cycles
 E2 =    -0.5490827294D+00 EUMP2 =    -0.25713754141278D+03
 SCF Done:  E(RHF) =  -256.587443743     A.U. after   13 cycles
 E2 =    -0.5513549815D+00 EUMP2 =    -0.25713879872416D+03
 SCF Done:  E(RHF) =  -256.588133541     A.U. after   12 cycles
 E2 =    -0.5485255991D+00 EUMP2 =    -0.25713665913966D+03
 SCF Done:  E(RHF) =  -256.587488528     A.U. after   12 cycles
 E2 =    -0.5518733677D+00 EUMP2 =    -0.25713936189572D+03
 SCF Done:  E(RHF) =  -256.587475934     A.U. after   13 cycles
 E2 =    -0.5499197439D+00 EUMP2 =    -0.25713739567835D+03
 SCF Done:  E(RHF) =  -256.587012631     A.U. after   14 cycles
 E2 =    -0.5520136859D+00 EUMP2 =    -0.25713902631702D+03
 SCF Done:  E(RHF) =  -256.587470742     A.U. after    9 cycles
 E2 =    -0.5519084070D+00 EUMP2 =    -0.25713937914932D+03
 SCF Done:  E(RHF) =  -256.587777743     A.U. after   12 cycles
 E2 =    -0.5512453187D+00 EUMP2 =    -0.25713902306176D+03
 SCF Done:  E(RHF) =  -256.587392398     A.U. after   11 cycles
 E2 =    -0.5521218224D+00 EUMP2 =    -0.25713951422039D+03
 E2 =    -0.5512023490D+00 EUMP2 =    -0.25713904051776D+03
 E2 =    -0.5520080730D+00 EUMP2 =    -0.25713945916460D+03
 E2 =    -0.5514808657D+00 EUMP2 =    -0.25713918584817D+03
 E2 =    -0.5519953784D+00 EUMP2 =    -0.25713945162433D+03
 E2 =    -0.5515605868D+00 EUMP2 =    -0.25713923087150D+03
 E2 =    -0.5519976632D+00 EUMP2 =    -0.25713945186403D+03
 E2 =    -0.5519916819D+00 EUMP2 =    -0.25713945014175D+03
 E2 =    -0.5519892442D+00 EUMP2 =    -0.25713945036278D+03
 E2 =    -0.5519552075D+00 EUMP2 =    -0.25713943235161D+03
 E2 =    -0.5518486076D+00 EUMP2 =    -0.25713937996950D+03
 Optimization completed.
    -- Stationary point found.
 Normal termination of Gaussian 09 at Mon Nov 25 19:31:13 2013.

 --------------------------------------------------------------------
 #N Geom=AllCheck Guess=TCheck SCRF=Check GenChk RCISD(FC)/6-31G Freq
 --------------------------------------------------------------------

 Structure from the checkpoint file:  "/tmp/rdj3/g09-16833/Gau-10372.chk"
 ------------------------------------------------------------------
 1H-tetrazole CH2N4 casno=288948 state=1 config=1 method=15 basis=9
 ------------------------------------------------------------------
 Charge =  0 Multiplicity = 1

                         Standard orientation:
 ---------------------------------------------------------------------
 Center     Atomic      Atomic             Coordinates (Angstroms)
 Number     Number       Type             X           Y           Z
 ---------------------------------------------------------------------
      1          6           0        1.082754    0.248183    0.000000
      2          7           0        0.000000    1.068102    0.000000
      3          7           0       -1.140757    0.295243    0.000000
      4          7           0       -0.740262   -0.943842    0.000000
      5          7           0        0.661225   -1.008963    0.000000
      6          1           0        2.106296    0.569831    0.000000
      7          1           0       -0.064263    2.067295    0.000000
 ---------------------------------------------------------------------

 E2 =    -0.5519148123D+00 EUMP2 =    -0.25713941473746D+03
 E2 =    -0.5519832796D+00 EUMP2 =    -0.25713944264915D+03
 E2 =    -0.5517948137D+00 EUMP2 =    -0.25713934638878D+03
 E2 =    -0.5521033583D+00 EUMP2 =    -0.25713951029172D+03
 E2 =    -0.5519491001D+00 EUMP2 =    -0.25713942914505D+03
 E2 =    -0.5520066055D+00 EUMP2 =    -0.25713945619508D+03
 E2 =    -0.5518914560D+00 EUMP2 =    -0.25713940126134D+03
 E2 =    -0.5518414103D+00 EUMP2 =    -0.25713937488201D+03
 E2 =    -0.5520567116D+00 EUMP2 =    -0.25713948161983D+03
 E2 =    -0.5519490840D+00 EUMP2 =    -0.25713942915571D+03
 SCF Done:  E(RHF) =  -256.587463420     A.U. after    8 cycles
 E2 =    -0.5519723979D+00 EUMP2 =    -0.25713943581788D+03
 SCF Done:  E(RHF) =  -256.587495870     A.U. after    9 cycles
 E2 =    -0.5519256070D+00 EUMP2 =    -0.25713942147655D+03
 SCF Done:  E(RHF) =  -256.587474969     A.U. after    8 cycles
 E2 =    -0.5519567514D+00 EUMP2 =    -0.25713943172087D+03
 SCF Done:  E(RHF) =  -256.587485332     A.U. after   10 cycles
 E2 =    -0.5519412748D+00 EUMP2 =    -0.25713942660639D+03
 SCF Done:  E(RHF) =  -256.587480257     A.U. after    6 cycles
 E2 =    -0.5519490246D+00 EUMP2 =    -0.25713942928186D+03
 SCF Done:  E(RHF) =  -256.587481924     A.U. after    9 cycles
 E2 =    -0.5519455738D+00 EUMP2 =    -0.25713942749784D+03
 SCF Done:  E(RHF) =  -256.587478430     A.U. after    9 cycles
 E2 =    -0.5519524806D+00 EUMP2 =    -0.25713943091053D+03
 SCF Done:  E(RHF) =  -256.587456730     A.U. after    8 cycles
 E2 =    -0.5519876906D+00 EUMP2 =    -0.25713944442058D+03
 SCF Done:  E(RHF) =  -256.587502076     A.U. after    9 cycles
 E2 =    -0.5519103128D+00 EUMP2 =    -0.25713941238861D+03
 SCF Done:  E(RHF) =  -256.587480272     A.U. after    6 cycles
 E2 =    -0.5519490203D+00 EUMP2 =    -0.25713942929256D+03

 Alpha  occ. eigenvalues --  -15.70009 -15.69911 -15.67858 -15.63719 -11.36876
 Alpha  occ. eigenvalues --   -1.52266  -1.27124  -1.22900  -0.91873  -0.89913
 Alpha  occ. eigenvalues --   -0.81338  -0.68320  -0.68253  -0.57133  -0.48265
 Alpha  occ. eigenvalues --   -0.47911  -0.46583  -0.43516
 Alpha virt. eigenvalues --    0.11121   0.16223   0.19199   0.23818   0.33996
 Alpha virt. eigenvalues --    0.34847   0.44210   0.47753   0.61067   0.73397
 Alpha virt. eigenvalues --    0.76556   0.84408   0.88437   0.91042   0.91508

 Mulliken charges:
               1
     1  C    0.334837
     2  N   -0.628437
     3  N    0.034491
     4  N   -0.084578
     5  N   -0.320212
     6  H    0.254871
     7  H    0.409029
 Sum of Mulliken charges =   0.00000

 Dipole moment (field-independent basis, Debye):
    X=              2.8354    Y=              5.3058    Z=              0.0021  Tot=              6.0159
 Quadrupole moment (field-independent basis, Debye-Ang):
   XX=            -30.3860   YY=            -28.2201   ZZ=            -29.1768
   XY=              2.2106   XZ=             -0.0001   YZ=              0.0047

                      1                      2                      3
                     A"                     A"                     A"
 Frequencies --    685.9123               740.0754               744.7976
 Red. masses --      4.3552                 5.2148                 1.2692
 Frc consts  --      1.2073                 1.6828                 0.4148
 IR Inten    --     30.0667                15.2313               146.3991

                      4                      5                      6
                     A'                     A"                     A'
 Frequencies --    896.9101               909.6516              1005.5764
 Red. masses --      9.6458                 1.3825                 5.1308
 Frc consts  --      4.5718                 0.6740                 3.0568
 IR Inten    --      8.6903                17.2255                21.8017

                      7                      8                      9
                     A'                     A'                     A'
 Frequencies --   1048.4865              1078.3129              1185.7857
 Red. masses --      6.9927                 4.7882                 1.9962
 Frc consts  --      4.5292                 3.2803                 1.6538
 IR Inten    --      2.9450                13.7284                17.7487

                     10                     11                     12
                     A'                     A'                     A'
 Frequencies --   1290.3087              1304.7818              1482.9866
 Red. masses --      3.1677                 4.2892                 2.8979
 Frc consts  --      3.1073                 4.3023                 3.7550
 IR Inten    --     12.5070                 4.8944                 7.1461

                     13                     14                     15
                     A'                     A'                     A'
 Frequencies --   1566.3470              3416.2779              3816.4461
 Red. masses --      2.1105                 1.1040                 1.0849
 Frc consts  --      3.0508                 7.5917                 9.3105
 IR Inten    --     46.0023                 4.1348               138.2128

 - Thermochemistry -
 -------------------
 Temperature   298.150 Kelvin.  Pressure   1.00000 Atm.
 Atom     1 has atomic number  6 and mass  12.00000

 Molecular mass:    70.02795 amu.
 Principal axes and moments of inertia in atomic units:
                           1         2         3
     Eigenvalues --   175.69395 180.35750 356.05145
           X            0.99926   0.03839   0.00000
           Y           -0.03839   0.99926   0.00000
           Z            0.00000   0.00000   1.00000
 This molecule is an asymmetric top.
 Rotational symmetry number  1.
 Rotational temperatures (Kelvin)      0.49298     0.48023     0.24326
 Rotational constants (GHZ):          10.27207    10.00647     5.06877
 Zero-point vibrational energy     126640.6 (Joules/Mol)
                                   30.26783 (Kcal/Mol)
 Vibrational temperatures:    986.87  1064.80  1071.60  1290.45  1308.78
          (Kelvin)           1446.80  1508.54  1551.45  1706.08  1856.46
                             1877.29  2133.68  2253.62  4915.26  5491.01

 Zero-point correction=                           0.048235 (Hartree/Particle)
 Thermal correction to Energy=                    0.051629
 Thermal correction to Enthalpy=                  0.052573
 Thermal correction to Gibbs Free Energy=         0.022132
 Sum of electronic and zero-point Energies=           -257.011847
 Sum of electronic and thermal Energies=              -257.008453
 Sum of electronic and thermal Enthalpies=            -257.007509
 Sum of electronic and thermal Free Energies=         -257.037950

                     E (Thermal)             CV                S
                      KCal/Mol        Cal/Mol-Kelvin    Cal/Mol-Kelvin
 Total                   32.398             10.959             64.069
 Electronic               0.000              0.000              0.000
 Translational            0.889              2.981             38.656
 Rotational               0.889              2.981             23.938
 Vibrational             30.620              4.997              1.475

 Optimization completed.
    -- Stationary point found.
 Normal termination of Gaussian 09 at Mon Nov 25 19:37:18 2013.
