 Gaussian 09, Revision D.01,
 Gaussian 09:  EM64L-G09RevD.01 24-Apr-2013

 ---------------------
 #CISD/6-31G* opt freq
 ---------------------

 ------------------------------------------------------------------
 1H-tetrazole CH2N4 casno=288948 state=1 config=1 method=15 basis=1
 ------------------------------------------------------------------
 Symbolic Z-matrix:
 Charge =  0 Multiplicity = 1

 SCF Done:  E(RHF) =  -256.754076285     A.U. after   15 cycles
 E2 =    -0.7737063668D+00 EUMP2 =    -0.25752778265216D+03
 SCF Done:  E(RHF) =  -256.752687676     A.U. after   12 cycles
 E2 =    -0.7799342087D+00 EUMP2 =    -0.25753262188491D+03
 SCF Done:  E(RHF) =  -256.752661601     A.U. after   11 cycles
 E2 =    -0.7800419589D+00 EUMP2 =    -0.25753270355948D+03
 SCF Done:  E(RHF) =  -256.752637863     A.U. after   10 cycles
 E2 =    -0.7801153217D+00 EUMP2 =    -0.25753275318497D+03
 SCF Done:  E(RHF) =  -256.752646589     A.U. after    9 cycles
 E2 =    -0.7801019213D+00 EUMP2 =    -0.25753274851077D+03
 Optimization completed.
    -- Stationary point found.
 Normal termination of Gaussian 09 at Mon Dec 16 15:05:18 2013.

 ----------------------------------------------------------------------
 #N Geom=AllCheck Guess=TCheck SCRF=Check GenChk RCISD(FC)/6-31G(d) Fre
 q
 ----------------------------------------------------------------------

 Structure from the checkpoint file:  "/tmp/rdj3/g09-9462/Gau-20286.chk"
 ------------------------------------------------------------------
 1H-tetrazole CH2N4 casno=288948 state=1 config=1 method=15 basis=1
 ------------------------------------------------------------------
 Charge =  0 Multiplicity = 1

                         Standard orientation:
 ---------------------------------------------------------------------
 Center     Atomic      Atomic             Coordinates (Angstroms)
 Number     Number       Type             X           Y           Z
 ---------------------------------------------------------------------
      1          6           0        1.059542    0.231404    0.000000
      2          7           0        0.000000    1.045986    0.000000
      3          7           0       -1.108203    0.299048    0.000000
      4          7           0       -0.719352   -0.915990    0.000000
      5          7           0        0.630768   -0.998949    0.000000
      6          1           0        2.083030    0.553624    0.000000
      7          1           0       -0.062773    2.047285    0.000000
 ---------------------------------------------------------------------

 SCF Done:  E(RHF) =  -256.752646589     A.U. after    1 cycles
 E2 =    -0.7801019184D+00 EUMP2 =    -0.25753274850791D+03
 SCF Done:  E(RHF) =  -256.752626694     A.U. after    9 cycles
 E2 =    -0.7801511448D+00 EUMP2 =    -0.25753277783851D+03
 SCF Done:  E(RHF) =  -256.752662777     A.U. after    9 cycles
 E2 =    -0.7800528995D+00 EUMP2 =    -0.25753271567666D+03
 SCF Done:  E(RHF) =  -256.752627776     A.U. after   10 cycles
 E2 =    -0.7801459369D+00 EUMP2 =    -0.25753277371301D+03
 SCF Done:  E(RHF) =  -256.752662678     A.U. after   10 cycles
 E2 =    -0.7800579017D+00 EUMP2 =    -0.25753272057999D+03
 E2 =    -0.7801020398D+00 EUMP2 =    -0.25753274829056D+03
 E2 =    -0.7801136183D+00 EUMP2 =    -0.25753275168665D+03
 E2 =    -0.7800903115D+00 EUMP2 =    -0.25753274298416D+03
 E2 =    -0.7801225625D+00 EUMP2 =    -0.25753275953681D+03
 E2 =    -0.7800814710D+00 EUMP2 =    -0.25753273356381D+03
 E2 =    -0.7801019766D+00 EUMP2 =    -0.25753274835695D+03
 E2 =    -0.7800099910D+00 EUMP2 =    -0.25753269590824D+03
 E2 =    -0.7801940337D+00 EUMP2 =    -0.25753279902747D+03
 E2 =    -0.7802108270D+00 EUMP2 =    -0.25753281070191D+03
 E2 =    -0.7799930569D+00 EUMP2 =    -0.25753268414269D+03
 E2 =    -0.7800900435D+00 EUMP2 =    -0.25753274392328D+03
 E2 =    -0.7801138919D+00 EUMP2 =    -0.25753275135112D+03
 E2 =    -0.7799703738D+00 EUMP2 =    -0.25753267129321D+03
 E2 =    -0.7802336288D+00 EUMP2 =    -0.25753282331230D+03
 E2 =    -0.7801020068D+00 EUMP2 =    -0.25753274830816D+03
 E2 =    -0.7801323333D+00 EUMP2 =    -0.25753276064310D+03
 E2 =    -0.7800715770D+00 EUMP2 =    -0.25753273474575D+03
 E2 =    -0.7800195212D+00 EUMP2 =    -0.25753269915177D+03
 E2 =    -0.7801844306D+00 EUMP2 =    -0.25753279541864D+03
 E2 =    -0.7801019861D+00 EUMP2 =    -0.25753274832717D+03
 SCF Done:  E(RHF) =  -256.752638197     A.U. after    7 cycles
 E2 =    -0.7801184250D+00 EUMP2 =    -0.25753275662174D+03
 SCF Done:  E(RHF) =  -256.752653609     A.U. after    8 cycles
 E2 =    -0.7800854384D+00 EUMP2 =    -0.25753273904756D+03
 SCF Done:  E(RHF) =  -256.752643954     A.U. after    8 cycles
 E2 =    -0.7801075507D+00 EUMP2 =    -0.25753275150504D+03
 SCF Done:  E(RHF) =  -256.752648887     A.U. after    9 cycles
 E2 =    -0.7800963112D+00 EUMP2 =    -0.25753274519775D+03
 SCF Done:  E(RHF) =  -256.752646532     A.U. after    7 cycles
 E2 =    -0.7801019357D+00 EUMP2 =    -0.25753274846744D+03
 SCF Done:  E(RHF) =  -256.752648258     A.U. after    7 cycles
 E2 =    -0.7800982373D+00 EUMP2 =    -0.25753274649571D+03
 SCF Done:  E(RHF) =  -256.752644644     A.U. after    8 cycles
 E2 =    -0.7801056613D+00 EUMP2 =    -0.25753275030512D+03
 SCF Done:  E(RHF) =  -256.752628814     A.U. after    7 cycles
 E2 =    -0.7801369613D+00 EUMP2 =    -0.25753276577501D+03
 SCF Done:  E(RHF) =  -256.752662529     A.U. after    8 cycles
 E2 =    -0.7800669001D+00 EUMP2 =    -0.25753272942893D+03
 SCF Done:  E(RHF) =  -256.752646554     A.U. after    6 cycles
 E2 =    -0.7801019308D+00 EUMP2 =    -0.25753274848506D+03

 Alpha  occ. eigenvalues --  -15.68763 -15.66519 -15.64662 -15.60443 -11.33802
 Alpha  occ. eigenvalues --   -1.50676  -1.26125  -1.20137  -0.91032  -0.89275
 Alpha  occ. eigenvalues --   -0.80443  -0.68132  -0.67952  -0.56957  -0.47631
 Alpha  occ. eigenvalues --   -0.46721  -0.45560  -0.41979
 Alpha virt. eigenvalues --    0.14502   0.19491   0.19848   0.25429   0.37199
 Alpha virt. eigenvalues --    0.38984   0.48275   0.50546   0.65985   0.73754
 Alpha virt. eigenvalues --    0.74056   0.82463   0.83146   0.90043   0.91757

 Mulliken charges:
               1
     1  C    0.255232
     2  N   -0.489099
     3  N   -0.027954
     4  N   -0.077135
     5  N   -0.321648
     6  H    0.244126
     7  H    0.416477
 Sum of Mulliken charges =   0.00000

 Dipole moment (field-independent basis, Debye):
    X=              2.6120    Y=              4.9515    Z=              0.0018  Tot=              5.5982
 Quadrupole moment (field-independent basis, Debye-Ang):
   XX=            -28.8204   YY=            -26.4237   ZZ=            -28.4827
   XY=              1.9193   XZ=             -0.0001   YZ=              0.0041

                      1                      2                      3
                     A"                     A"                     A"
 Frequencies --    612.6848               725.0681               776.9142
 Red. masses --      1.7931                 1.9672                 8.1239
 Frc consts  --      0.3966                 0.6093                 2.8891
 IR Inten    --    110.5428                11.2076                10.2752

                      4                      5                      6
                     A"                     A'                     A'
 Frequencies --    929.5506              1040.4547              1069.6546
 Red. masses --      1.3533                 4.8879                 6.4296
 Frc consts  --      0.6890                 3.1176                 4.3343
 IR Inten    --     15.5023                 2.2190                 1.8282

                      7                      8                      9
                     A'                     A'                     A'
 Frequencies --   1150.5295              1161.6619              1220.9550
 Red. masses --      4.6371                 2.9381                 1.8704
 Frc consts  --      3.6165                 2.3360                 1.6428
 IR Inten    --     18.2761                36.4092                12.6503

                     10                     11                     12
                     A'                     A'                     A'
 Frequencies --   1367.6207              1436.6375              1571.7996
 Red. masses --      2.7017                 8.6780                 3.2067
 Frc consts  --      2.9772                10.5528                 4.6677
 IR Inten    --      0.0678                24.8470                13.6554

                     13                     14                     15
                     A'                     A'                     A'
 Frequencies --   1628.9050              3429.4157              3808.3756
 Red. masses --      3.7319                 1.1029                 1.0848
 Frc consts  --      5.8341                 7.6425                 9.2702
 IR Inten    --     22.9786                 1.1644               128.0507

 - Thermochemistry -
 -------------------
 Temperature   298.150 Kelvin.  Pressure   1.00000 Atm.
 Atom     1 has atomic number  6 and mass  12.00000

 Molecular mass:    70.02795 amu.
 Principal axes and moments of inertia in atomic units:
                           1         2         3
     Eigenvalues --   168.52495 171.37555 339.90050
           X            0.87702   0.48045   0.00000
           Y           -0.48045   0.87702   0.00000
           Z            0.00000   0.00000   1.00000
 This molecule is an asymmetric top.
 Rotational symmetry number  1.
 Rotational temperatures (Kelvin)      0.51395     0.50540     0.25482
 Rotational constants (GHZ):          10.70904    10.53091     5.30962
 Zero-point vibrational energy     131171.9 (Joules/Mol)
                                   31.35083 (Kcal/Mol)
 Warning -- explicit consideration of   1 degrees of freedom as
           vibrations may cause significant error
 Vibrational temperatures:    881.52  1043.21  1117.80  1337.41  1496.98
          (Kelvin)           1538.99  1655.35  1671.37  1756.68  1967.70
                             2067.00  2261.47  2343.63  4934.16  5479.40

 Zero-point correction=                           0.049961 (Hartree/Particle)
 Thermal correction to Energy=                    0.053319
 Thermal correction to Enthalpy=                  0.054263
 Thermal correction to Gibbs Free Energy=         0.023926
 Sum of electronic and zero-point Energies=           -257.364869
 Sum of electronic and thermal Energies=              -257.361511
 Sum of electronic and thermal Enthalpies=            -257.360566
 Sum of electronic and thermal Free Energies=         -257.390904

                     E (Thermal)             CV                S
                      KCal/Mol        Cal/Mol-Kelvin    Cal/Mol-Kelvin
 Total                   33.458             10.520             63.851
 Electronic               0.000              0.000              0.000
 Translational            0.889              2.981             38.656
 Rotational               0.889              2.981             23.800
 Vibrational             31.681              4.559              1.396
 Vibration     1          0.972              1.005              0.428

 Optimization completed.
    -- Stationary point found.
 Normal termination of Gaussian 09 at Mon Dec 16 15:29:29 2013.
