 Gaussian 09, Revision D.01,
 Gaussian 09:  EM64L-G09RevD.01 24-Apr-2013

 ----------------------
 #CISD/6-311G* opt freq
 ----------------------

 ------------------------------------------------------------------
 1H-tetrazole CH2N4 casno=288948 state=1 config=1 method=15 basis=7
 ------------------------------------------------------------------
 Symbolic Z-matrix:
 Charge =  0 Multiplicity = 1

 SCF Done:  E(RHF) =  -256.810747258     A.U. after   14 cycles
 E2 =    -0.8105285881D+00 EUMP2 =    -0.25762127584607D+03
 SCF Done:  E(RHF) =  -256.809776702     A.U. after   11 cycles
 E2 =    -0.8145705722D+00 EUMP2 =    -0.25762434727380D+03
 SCF Done:  E(RHF) =  -256.809743878     A.U. after    9 cycles
 E2 =    -0.8146864994D+00 EUMP2 =    -0.25762443037742D+03
 SCF Done:  E(RHF) =  -256.809741701     A.U. after    9 cycles
 E2 =    -0.8147044742D+00 EUMP2 =    -0.25762444617486D+03
 Optimization completed.
    -- Stationary point found.
 Normal termination of Gaussian 09 at Mon Dec 16 15:40:23 2013.

 ----------------------------------------------------------------------
 #N Geom=AllCheck Guess=TCheck SCRF=Check GenChk RCISD(FC)/6-311G(d) Fr
 eq
 ----------------------------------------------------------------------

 Structure from the checkpoint file:  "/tmp/rdj3/g09-9462/Gau-30069.chk"
 ------------------------------------------------------------------
 1H-tetrazole CH2N4 casno=288948 state=1 config=1 method=15 basis=7
 ------------------------------------------------------------------
 Charge =  0 Multiplicity = 1

                         Standard orientation:
 ---------------------------------------------------------------------
 Center     Atomic      Atomic             Coordinates (Angstroms)
 Number     Number       Type             X           Y           Z
 ---------------------------------------------------------------------
      1          6           0        1.057748    0.227974    0.000000
      2          7           0        0.000000    1.044591    0.000000
      3          7           0       -1.103343    0.298662    0.000000
      4          7           0       -0.719286   -0.910587    0.000000
      5          7           0        0.627437   -0.997861    0.000000
      6          1           0        2.081200    0.547946    0.000000
      7          1           0       -0.061346    2.040575    0.000000
 ---------------------------------------------------------------------

 SCF Done:  E(RHF) =  -256.809741701     A.U. after    1 cycles
 E2 =    -0.8147044746D+00 EUMP2 =    -0.25762444617527D+03
 SCF Done:  E(RHF) =  -256.809723109     A.U. after    9 cycles
 E2 =    -0.8147517127D+00 EUMP2 =    -0.25762447482157D+03
 SCF Done:  E(RHF) =  -256.809756614     A.U. after    9 cycles
 E2 =    -0.8146574746D+00 EUMP2 =    -0.25762441408881D+03
 SCF Done:  E(RHF) =  -256.809723819     A.U. after    9 cycles
 E2 =    -0.8147483202D+00 EUMP2 =    -0.25762447213942D+03
 SCF Done:  E(RHF) =  -256.809756875     A.U. after   10 cycles
 E2 =    -0.8146606731D+00 EUMP2 =    -0.25762441754853D+03
 SCF Done:  E(RHF) =  -256.809741365     A.U. after    7 cycles
 E2 =    -0.8147045880D+00 EUMP2 =    -0.25762444595300D+03
 E2 =    -0.8147122070D+00 EUMP2 =    -0.25762444830773D+03
 E2 =    -0.8146968659D+00 EUMP2 =    -0.25762444173129D+03
 E2 =    -0.8147229981D+00 EUMP2 =    -0.25762445653550D+03
 E2 =    -0.8146861593D+00 EUMP2 =    -0.25762443185703D+03
 E2 =    -0.8147045313D+00 EUMP2 =    -0.25762444602378D+03
 E2 =    -0.8146217292D+00 EUMP2 =    -0.25762439555783D+03
 E2 =    -0.8147874367D+00 EUMP2 =    -0.25762449471369D+03
 E2 =    -0.8148088957D+00 EUMP2 =    -0.25762450860203D+03
 E2 =    -0.8146001493D+00 EUMP2 =    -0.25762438157948D+03
 E2 =    -0.8147045608D+00 EUMP2 =    -0.25762444599419D+03
 E2 =    -0.8146971008D+00 EUMP2 =    -0.25762444316580D+03
 E2 =    -0.8147119795D+00 EUMP2 =    -0.25762444746064D+03
 E2 =    -0.8145813227D+00 EUMP2 =    -0.25762436989216D+03
 E2 =    -0.8148278225D+00 EUMP2 =    -0.25762452003178D+03
 E2 =    -0.8147045631D+00 EUMP2 =    -0.25762444597728D+03
 E2 =    -0.8147287353D+00 EUMP2 =    -0.25762445679697D+03
 E2 =    -0.8146803214D+00 EUMP2 =    -0.25762443395851D+03
 E2 =    -0.8146233843D+00 EUMP2 =    -0.25762439546099D+03
 E2 =    -0.8147856991D+00 EUMP2 =    -0.25762449445728D+03
 E2 =    -0.8147045420D+00 EUMP2 =    -0.25762444599539D+03
 SCF Done:  E(RHF) =  -256.809734666     A.U. after    7 cycles
 E2 =    -0.8147194475D+00 EUMP2 =    -0.25762445411393D+03
 SCF Done:  E(RHF) =  -256.809747379     A.U. after    8 cycles
 E2 =    -0.8146895351D+00 EUMP2 =    -0.25762443691427D+03
 SCF Done:  E(RHF) =  -256.809739516     A.U. after    7 cycles
 E2 =    -0.8147094889D+00 EUMP2 =    -0.25762444900518D+03
 SCF Done:  E(RHF) =  -256.809743553     A.U. after    8 cycles
 E2 =    -0.8146994907D+00 EUMP2 =    -0.25762444304328D+03
 SCF Done:  E(RHF) =  -256.809741644     A.U. after    7 cycles
 E2 =    -0.8147044919D+00 EUMP2 =    -0.25762444613605D+03
 SCF Done:  E(RHF) =  -256.809743271     A.U. after    7 cycles
 E2 =    -0.8147008321D+00 EUMP2 =    -0.25762444410339D+03
 SCF Done:  E(RHF) =  -256.809739849     A.U. after    8 cycles
 E2 =    -0.8147081791D+00 EUMP2 =    -0.25762444802799D+03
 SCF Done:  E(RHF) =  -256.809726411     A.U. after    7 cycles
 E2 =    -0.8147373082D+00 EUMP2 =    -0.25762446371901D+03
 SCF Done:  E(RHF) =  -256.809755113     A.U. after    8 cycles
 E2 =    -0.8146716759D+00 EUMP2 =    -0.25762442678930D+03
 SCF Done:  E(RHF) =  -256.809741666     A.U. after    6 cycles
 E2 =    -0.8147044876D+00 EUMP2 =    -0.25762444615313D+03

 Alpha  occ. eigenvalues --  -15.67949 -15.65662 -15.63771 -15.59642 -11.33503
 Alpha  occ. eigenvalues --   -1.51218  -1.26439  -1.20456  -0.91335  -0.89508
 Alpha  occ. eigenvalues --   -0.80751  -0.68452  -0.68227  -0.57168  -0.47787
 Alpha  occ. eigenvalues --   -0.46792  -0.45773  -0.42217
 Alpha virt. eigenvalues --    0.12787   0.14200   0.16816   0.19086   0.33441
 Alpha virt. eigenvalues --    0.36670   0.37833   0.47239   0.53063   0.56351
 Alpha virt. eigenvalues --    0.61836   0.64043   0.69241   0.74924   0.77593

 Mulliken charges:
               1
     1  C    0.142911
     2  N   -0.453897
     3  N   -0.012312
     4  N   -0.082111
     5  N   -0.263286
     6  H    0.272947
     7  H    0.395748
 Sum of Mulliken charges =   0.00000

 Dipole moment (field-independent basis, Debye):
    X=              2.5883    Y=              4.9609    Z=              0.0018  Tot=              5.5955
 Quadrupole moment (field-independent basis, Debye-Ang):
   XX=            -28.9220   YY=            -26.5421   ZZ=            -28.4757
   XY=              1.9077   XZ=             -0.0001   YZ=              0.0041

                      1                      2                      3
                     A"                     A"                     A"
 Frequencies --    620.3247               728.6401               778.2150
 Red. masses --      1.8622                 1.8805                 7.7959
 Frc consts  --      0.4222                 0.5882                 2.7817
 IR Inten    --    103.1758                13.0354                10.7659

                      4                      5                      6
                     A"                     A'                     A'
 Frequencies --    933.9443              1041.9494              1071.1609
 Red. masses --      1.3683                 4.6643                 6.7180
 Frc consts  --      0.7032                 2.9835                 4.5415
 IR Inten    --     16.7231                 2.6522                 1.6193

                      7                      8                      9
                     A'                     A'                     A'
 Frequencies --   1144.9664              1165.9559              1215.0738
 Red. masses --      4.0404                 2.8897                 2.0747
 Frc consts  --      3.1208                 2.3146                 1.8047
 IR Inten    --     21.9743                34.0174                11.8469

                     10                     11                     12
                     A'                     A'                     A'
 Frequencies --   1364.5852              1441.9755              1570.2073
 Red. masses --      2.8893                 7.7119                 3.3312
 Frc consts  --      3.1699                 9.4477                 4.8392
 IR Inten    --      0.1472                25.4180                12.4404

                     13                     14                     15
                     A'                     A'                     A'
 Frequencies --   1632.7044              3405.2013              3846.1889
 Red. masses --      3.3218                 1.1032                 1.0845
 Frc consts  --      5.2172                 7.5367                 9.4522
 IR Inten    --     22.5382                 0.7253               113.3549

 - Thermochemistry -
 -------------------
 Temperature   298.150 Kelvin.  Pressure   1.00000 Atm.
 Atom     1 has atomic number  6 and mass  12.00000

 Molecular mass:    70.02795 amu.
 Principal axes and moments of inertia in atomic units:
                           1         2         3
     Eigenvalues --   167.48753 170.52542 338.01295
           X            0.86774   0.49702   0.00000
           Y           -0.49702   0.86774   0.00000
           Z            0.00000   0.00000   1.00000
 This molecule is an asymmetric top.
 Rotational symmetry number  1.
 Rotational temperatures (Kelvin)      0.51714     0.50792     0.25624
 Rotational constants (GHZ):          10.77538    10.58341     5.33927
 Zero-point vibrational energy     131356.5 (Joules/Mol)
                                   31.39496 (Kcal/Mol)
 Warning -- explicit consideration of   1 degrees of freedom as
           vibrations may cause significant error
 Vibrational temperatures:    892.51  1048.35  1119.68  1343.74  1499.13
          (Kelvin)           1541.16  1647.35  1677.55  1748.22  1963.33
                             2074.68  2259.18  2349.09  4899.32  5533.80

 Zero-point correction=                           0.050031 (Hartree/Particle)
 Thermal correction to Energy=                    0.053383
 Thermal correction to Enthalpy=                  0.054327
 Thermal correction to Gibbs Free Energy=         0.024007
 Sum of electronic and zero-point Energies=           -257.447928
 Sum of electronic and thermal Energies=              -257.444576
 Sum of electronic and thermal Enthalpies=            -257.443632
 Sum of electronic and thermal Free Energies=         -257.473952

                     E (Thermal)             CV                S
                      KCal/Mol        Cal/Mol-Kelvin    Cal/Mol-Kelvin
 Total                   33.498             10.491             63.815
 Electronic               0.000              0.000              0.000
 Translational            0.889              2.981             38.656
 Rotational               0.889              2.981             23.783
 Vibrational             31.721              4.529              1.376
 Vibration     1          0.980              0.989              0.416

 Optimization completed.
    -- Stationary point found.
 Normal termination of Gaussian 09 at Mon Dec 16 16:48:12 2013.
