 Gaussian 09, Revision D.01,
 Gaussian 09:  EM64L-G09RevD.01 24-Apr-2013

 ---------------------
 #CISD/3-21G* opt freq
 ---------------------

 ------------------------------------------------------------------
 1H-tetrazole CH2N4 casno=288948 state=1 config=1 method=15 basis=8
 ------------------------------------------------------------------
 Symbolic Z-matrix:
 Charge =  0 Multiplicity = 1

 SCF Done:  E(RHF) =  -255.261114440     A.U. after   14 cycles
 E2 =    -0.5240768282D+00 EUMP2 =    -0.25578519126841D+03
 SCF Done:  E(RHF) =  -255.266815485     A.U. after   15 cycles
 E2 =    -0.5450400210D+00 EUMP2 =    -0.25581185550639D+03
 SCF Done:  E(RHF) =  -255.264473752     A.U. after   14 cycles
 E2 =    -0.5514256393D+00 EUMP2 =    -0.25581589939123D+03
 SCF Done:  E(RHF) =  -255.264833523     A.U. after   13 cycles
 E2 =    -0.5518938348D+00 EUMP2 =    -0.25581672735820D+03
 SCF Done:  E(RHF) =  -255.265406621     A.U. after   12 cycles
 E2 =    -0.5508485075D+00 EUMP2 =    -0.25581625512805D+03
 SCF Done:  E(RHF) =  -255.265758359     A.U. after   12 cycles
 E2 =    -0.5501522782D+00 EUMP2 =    -0.25581591063738D+03
 SCF Done:  E(RHF) =  -255.265768131     A.U. after   10 cycles
 E2 =    -0.5501186671D+00 EUMP2 =    -0.25581588679828D+03
 SCF Done:  E(RHF) =  -255.265729034     A.U. after   10 cycles
 E2 =    -0.5501829135D+00 EUMP2 =    -0.25581591194756D+03
 Optimization completed.
    -- Stationary point found.
 Normal termination of Gaussian 09 at Mon Dec 16 16:48:55 2013.

 ---------------------------------------------------------------------
 #N Geom=AllCheck Guess=TCheck SCRF=Check GenChk RCISD(FC)/3-21G* Freq
 ---------------------------------------------------------------------

 Structure from the checkpoint file:  "/tmp/rdj3/g09-9462/Gau-2383.chk"
 ------------------------------------------------------------------
 1H-tetrazole CH2N4 casno=288948 state=1 config=1 method=15 basis=8
 ------------------------------------------------------------------
 Charge =  0 Multiplicity = 1

                         Standard orientation:
 ---------------------------------------------------------------------
 Center     Atomic      Atomic             Coordinates (Angstroms)
 Number     Number       Type             X           Y           Z
 ---------------------------------------------------------------------
      1          6           0        1.077959    0.253618    0.000000
      2          7           0        0.000000    1.081283    0.000000
      3          7           0       -1.160541    0.286324    0.000000
      4          7           0       -0.747515   -0.959215    0.000000
      5          7           0        0.694651   -1.007806    0.000000
      6          1           0        2.094155    0.590490    0.000000
      7          1           0       -0.068070    2.083703    0.000000
 ---------------------------------------------------------------------

 SCF Done:  E(RHF) =  -255.265729034     A.U. after    1 cycles
 E2 =    -0.5501829156D+00 EUMP2 =    -0.25581591194958D+03
 SCF Done:  E(RHF) =  -255.265704720     A.U. after   10 cycles
 E2 =    -0.5502321276D+00 EUMP2 =    -0.25581593684731D+03
 E2 =    -0.5501339024D+00 EUMP2 =    -0.25581588386567D+03
 E2 =    -0.5502298518D+00 EUMP2 =    -0.25581593720502D+03
 E2 =    -0.5501360316D+00 EUMP2 =    -0.25581588441793D+03
 E2 =    -0.5501830427D+00 EUMP2 =    -0.25581591170118D+03
 E2 =    -0.5501930632D+00 EUMP2 =    -0.25581591810964D+03
 E2 =    -0.5501728654D+00 EUMP2 =    -0.25581590404597D+03
 E2 =    -0.5502319264D+00 EUMP2 =    -0.25581593585811D+03
 E2 =    -0.5501341156D+00 EUMP2 =    -0.25581588453325D+03
 E2 =    -0.5501830059D+00 EUMP2 =    -0.25581591179754D+03
 E2 =    -0.5500810568D+00 EUMP2 =    -0.25581585818574D+03
 E2 =    -0.5501602810D+00 EUMP2 =    -0.25581590265092D+03
 E2 =    -0.5502056753D+00 EUMP2 =    -0.25581592017492D+03
 E2 =    -0.5500423436D+00 EUMP2 =    -0.25581583434098D+03
 E2 =    -0.5503236842D+00 EUMP2 =    -0.25581598792022D+03
 E2 =    -0.5501830006D+00 EUMP2 =    -0.25581591178822D+03
 E2 =    -0.5502321162D+00 EUMP2 =    -0.25581593529168D+03
 E2 =    -0.5501338114D+00 EUMP2 =    -0.25581588760136D+03
 E2 =    -0.5500815948D+00 EUMP2 =    -0.25581585940370D+03
 E2 =    -0.5502843591D+00 EUMP2 =    -0.25581596246177D+03
 E2 =    -0.5501829890D+00 EUMP2 =    -0.25581591179293D+03
 SCF Done:  E(RHF) =  -255.265715391     A.U. after    8 cycles
 E2 =    -0.5502014201D+00 EUMP2 =    -0.25581591681132D+03
 SCF Done:  E(RHF) =  -255.265741345     A.U. after    9 cycles
 E2 =    -0.5501644312D+00 EUMP2 =    -0.25581590577597D+03
 SCF Done:  E(RHF) =  -255.265724452     A.U. after    9 cycles
 E2 =    -0.5501897130D+00 EUMP2 =    -0.25581591416521D+03
 SCF Done:  E(RHF) =  -255.265733268     A.U. after    9 cycles
 E2 =    -0.5501761570D+00 EUMP2 =    -0.25581590942535D+03
 SCF Done:  E(RHF) =  -255.265728969     A.U. after    6 cycles
 E2 =    -0.5501829403D+00 EUMP2 =    -0.25581591190946D+03
 SCF Done:  E(RHF) =  -255.265729991     A.U. after    9 cycles
 E2 =    -0.5501807192D+00 EUMP2 =    -0.25581591071052D+03
 SCF Done:  E(RHF) =  -255.265727811     A.U. after    9 cycles
 E2 =    -0.5501851735D+00 EUMP2 =    -0.25581591298471D+03
 SCF Done:  E(RHF) =  -255.265709924     A.U. after    8 cycles
 E2 =    -0.5502150278D+00 EUMP2 =    -0.25581592495182D+03
 SCF Done:  E(RHF) =  -255.265746385     A.U. after    9 cycles
 E2 =    -0.5501508394D+00 EUMP2 =    -0.25581589722482D+03
 SCF Done:  E(RHF) =  -255.265728993     A.U. after    6 cycles
 E2 =    -0.5501829379D+00 EUMP2 =    -0.25581591193126D+03

 Alpha  occ. eigenvalues --  -15.61727 -15.61623 -15.59698 -15.54947 -11.30416
 Alpha  occ. eigenvalues --   -1.49120  -1.24668  -1.21623  -0.89977  -0.88304
 Alpha  occ. eigenvalues --   -0.80360  -0.66812  -0.66387  -0.56057  -0.47899
 Alpha  occ. eigenvalues --   -0.46395  -0.45369  -0.43043
 Alpha virt. eigenvalues --    0.12487   0.17667   0.23353   0.26310   0.34978
 Alpha virt. eigenvalues --    0.38439   0.47980   0.55360   0.63344   0.93140
 Alpha virt. eigenvalues --    0.93683   1.05000   1.09251   1.21190   1.31828

 Mulliken charges:
               1
     1  C    0.363046
     2  N   -0.590239
     3  N   -0.015346
     4  N   -0.072818
     5  N   -0.360561
     6  H    0.286426
     7  H    0.389491
 Sum of Mulliken charges =   0.00000

 Dipole moment (field-independent basis, Debye):
    X=              2.5393    Y=              5.0338    Z=              0.0020  Tot=              5.6380
 Quadrupole moment (field-independent basis, Debye-Ang):
   XX=            -29.5699   YY=            -27.2355   ZZ=            -28.8522
   XY=              2.1192   XZ=             -0.0001   YZ=              0.0045

                      1                      2                      3
                     A"                     A"                     A"
 Frequencies --    657.8468               702.8389               716.3969
 Red. masses --      2.7566                 1.4112                 7.0139
 Frc consts  --      0.7029                 0.4107                 2.1209
 IR Inten    --    105.3891                58.0618                19.3281

                      4                      5                      6
                     A'                     A'                     A"
 Frequencies --    817.5634               928.9136               968.7517
 Red. masses --     11.0251                 5.7779                 1.3864
 Frc consts  --      4.3418                 2.9375                 0.7666
 IR Inten    --     12.3429                17.6746                12.9710

                      7                      8                      9
                     A'                     A'                     A'
 Frequencies --   1027.3000              1053.4788              1141.3153
 Red. masses --      5.2777                 6.2005                 3.5934
 Frc consts  --      3.2816                 4.0544                 2.7579
 IR Inten    --      7.3074                 9.3714                 9.9990

                     10                     11                     12
                     A'                     A'                     A'
 Frequencies --   1198.8744              1279.5607              1432.6991
 Red. masses --      3.7029                 2.0732                 2.3995
 Frc consts  --      3.1357                 2.0000                 2.9019
 IR Inten    --     11.0446                 8.5449                 9.6538

                     13                     14                     15
                     A'                     A'                     A'
 Frequencies --   1514.9931              3397.0936              3722.2068
 Red. masses --      2.1943                 1.1010                 1.0846
 Frc consts  --      2.9673                 7.4859                 8.8535
 IR Inten    --     47.1226                 2.0620               138.9144

 - Thermochemistry -
 -------------------
 Temperature   298.150 Kelvin.  Pressure   1.00000 Atm.
 Atom     1 has atomic number  6 and mass  12.00000

 Molecular mass:    70.02795 amu.
 Principal axes and moments of inertia in atomic units:
                           1         2         3
     Eigenvalues --   178.61874 184.83482 363.45356
           X            0.99806   0.06219   0.00000
           Y           -0.06219   0.99806   0.00000
           Z            0.00000   0.00000   1.00000
 This molecule is an asymmetric top.
 Rotational symmetry number  1.
 Rotational temperatures (Kelvin)      0.48491     0.46860     0.23831
 Rotational constants (GHZ):          10.10387     9.76408     4.96553
 Zero-point vibrational energy     122975.1 (Joules/Mol)
                                   29.39176 (Kcal/Mol)
 Vibrational temperatures:    946.49  1011.23  1030.73  1176.29  1336.50
          (Kelvin)           1393.82  1478.05  1515.72  1642.10  1724.91
                             1841.00  2061.33  2179.73  4887.65  5355.42

 Zero-point correction=                           0.046839 (Hartree/Particle)
 Thermal correction to Energy=                    0.050308
 Thermal correction to Enthalpy=                  0.051252
 Thermal correction to Gibbs Free Energy=         0.020682
 Sum of electronic and zero-point Energies=           -255.693137
 Sum of electronic and thermal Energies=              -255.689668
 Sum of electronic and thermal Enthalpies=            -255.688724
 Sum of electronic and thermal Free Energies=         -255.719293

                     E (Thermal)             CV                S
                      KCal/Mol        Cal/Mol-Kelvin    Cal/Mol-Kelvin
 Total                   31.569             11.439             64.339
 Electronic               0.000              0.000              0.000
 Translational            0.889              2.981             38.656
 Rotational               0.889              2.981             23.999
 Vibrational             29.791              5.477              1.684

 Optimization completed.
    -- Stationary point found.
 Normal termination of Gaussian 09 at Mon Dec 16 16:53:47 2013.
