 Gaussian 09, Revision D.01,
 Gaussian 09:  EM64L-G09RevD.01 24-Apr-2013

 ----------------------------------
 #B3PW91/6-31+G** opt=z-matrix freq
 ----------------------------------

 ------------------------------------------------------------------
 1H-tetrazole CH2N4 casno=288948 state=1 config=1 method=16 basis=4
 ------------------------------------------------------------------
 Symbolic Z-matrix:
 Charge =  0 Multiplicity = 1

 SCF Done:  E(RB3PW91) =  -258.165841576     A.U. after   12 cycles
 SCF Done:  E(RB3PW91) =  -258.169123312     A.U. after   11 cycles
 SCF Done:  E(RB3PW91) =  -258.169185308     A.U. after   10 cycles
 SCF Done:  E(RB3PW91) =  -258.169063985     A.U. after   11 cycles
 SCF Done:  E(RB3PW91) =  -258.169205036     A.U. after    9 cycles
 SCF Done:  E(RB3PW91) =  -258.169188757     A.U. after   10 cycles
 SCF Done:  E(RB3PW91) =  -258.169208770     A.U. after    7 cycles
 SCF Done:  E(RB3PW91) =  -258.169209563     A.U. after    8 cycles
 SCF Done:  E(RB3PW91) =  -258.169209585     A.U. after    7 cycles
 SCF Done:  E(RB3PW91) =  -258.169202766     A.U. after    9 cycles
 SCF Done:  E(RB3PW91) =  -258.169209672     A.U. after    5 cycles
 SCF Done:  E(RB3PW91) =  -258.169209734     A.U. after    8 cycles
 SCF Done:  E(RB3PW91) =  -258.169209769     A.U. after    8 cycles
 SCF Done:  E(RB3PW91) =  -258.169209127     A.U. after    8 cycles
 SCF Done:  E(RB3PW91) =  -258.169209685     A.U. after    5 cycles
 Optimization completed.
    -- Stationary point found.
 Normal termination of Gaussian 09 at Mon Nov 25 19:46:01 2013.

 ----------------------------------------------------------------------
 #N Geom=AllCheck Guess=TCheck SCRF=Check GenChk RB3PW91/6-31+G(d,p) Fr
 eq
 ----------------------------------------------------------------------

 Structure from the checkpoint file:  "/tmp/rdj3/g09-16833/Gau-27921.chk"
 ------------------------------------------------------------------
 1H-tetrazole CH2N4 casno=288948 state=1 config=1 method=16 basis=4
 ------------------------------------------------------------------
 Charge =  0 Multiplicity = 1

                         Standard orientation:
 ---------------------------------------------------------------------
 Center     Atomic      Atomic             Coordinates (Angstroms)
 Number     Number       Type             X           Y           Z
 ---------------------------------------------------------------------
      1          6           0        1.066906    0.234619    0.000000
      2          7           0        0.000000    1.052017    0.000000
      3          7           0       -1.116567    0.302994    0.000000
      4          7           0       -0.720806   -0.923612    0.000000
      5          7           0        0.631932   -1.006361    0.000000
      6          1           0        2.096866    0.557349    0.000000
      7          1           0       -0.060209    2.059671    0.000000
 ---------------------------------------------------------------------

 SCF Done:  E(RB3PW91) =  -258.169209685     A.U. after    2 cycles

 The electronic state is 1-A'.
 Alpha  occ. eigenvalues --  -14.45376 -14.41715 -14.39959 -14.37152 -10.27846
 Alpha  occ. eigenvalues --   -1.16913  -0.96938  -0.91436  -0.69904  -0.68422
 Alpha  occ. eigenvalues --   -0.61338  -0.51566  -0.51507  -0.39597  -0.34982
 Alpha  occ. eigenvalues --   -0.32620  -0.32040  -0.30523
 Alpha virt. eigenvalues --   -0.03761  -0.00649  -0.00248   0.02949   0.05135
 Alpha virt. eigenvalues --    0.06103   0.08106   0.09726   0.11813   0.13801
 Alpha virt. eigenvalues --    0.15273   0.15511   0.17540   0.18402   0.18666

 Mulliken charges:
               1
     1  C    0.003919
     2  N   -0.285915
     3  N   -0.010526
     4  N   -0.008481
     5  N   -0.247978
     6  H    0.199755
     7  H    0.349226
 Sum of Mulliken charges =   0.00000

 Dipole moment (field-independent basis, Debye):
    X=              2.6347    Y=              4.9119    Z=              0.0000  Tot=              5.5739
 Quadrupole moment (field-independent basis, Debye-Ang):
   XX=            -29.2668   YY=            -26.6726   ZZ=            -28.7434
   XY=              1.9257   XZ=              0.0000   YZ=              0.0000

  Exact polarizability:  43.384   0.407  42.921   0.000   0.000  23.688
 Approx polarizability:  70.271  -0.075  74.131   0.000   0.000  33.705

                      1                      2                      3
                     A"                     A"                     A"
 Frequencies --    593.9792               692.3134               739.6558
 Red. masses --      1.8728                 1.8789                 8.1949
 Frc consts  --      0.3893                 0.5306                 2.6415
 IR Inten    --     83.9037                12.1497                 8.6027

                      4                      5                      6
                     A"                     A'                     A'
 Frequencies --    852.1259               983.0001              1017.2801
 Red. masses --      1.3515                 4.4366                 5.9182
 Frc consts  --      0.5782                 2.5259                 3.6085
 IR Inten    --     22.8720                 3.2770                 1.1189

                      7                      8                      9
                     A'                     A'                     A'
 Frequencies --   1077.5090              1093.6154              1154.3961
 Red. masses --      3.3909                 4.7307                 1.9120
 Frc consts  --      2.3196                 3.3335                 1.5012
 IR Inten    --     23.2766                26.1134                12.5156

                     10                     11                     12
                     A'                     A'                     A'
 Frequencies --   1280.2430              1317.6775              1475.3829
 Red. masses --      2.4685                10.6303                 3.3595
 Frc consts  --      2.3838                10.8747                 4.3086
 IR Inten    --      1.9113                17.0937                 9.5146

                     13                     14                     15
                     A'                     A'                     A'
 Frequencies --   1522.2113              3312.9800              3683.4767
 Red. masses --      3.4083                 1.1012                 1.0841
 Frc consts  --      4.6530                 7.1209                 8.6663
 IR Inten    --     17.3347                 2.3224               101.4676

 - Thermochemistry -
 -------------------
 Temperature   298.150 Kelvin.  Pressure   1.00000 Atm.
 Atom     1 has atomic number  6 and mass  12.00000

 Molecular mass:    70.02795 amu.
 Principal axes and moments of inertia in atomic units:
                           1         2         3
     Eigenvalues --   170.84762 173.49021 344.33782
           X            0.83745   0.54651   0.00000
           Y           -0.54651   0.83745   0.00000
           Z            0.00000   0.00000   1.00000
 This molecule is an asymmetric top.
 Rotational symmetry number  1.
 Rotational temperatures (Kelvin)      0.50697     0.49924     0.25154
 Rotational constants (GHZ):          10.56346    10.40255     5.24119
 Zero-point vibrational energy     124386.8 (Joules/Mol)
                                   29.72915 (Kcal/Mol)
 Warning -- explicit consideration of   1 degrees of freedom as
           vibrations may cause significant error
 Vibrational temperatures:    854.60   996.08  1064.20  1226.02  1414.32
          (Kelvin)           1463.64  1550.29  1573.47  1660.92  1841.98
                             1895.84  2122.74  2190.12  4766.63  5299.69

 Zero-point correction=                           0.047376 (Hartree/Particle)
 Thermal correction to Energy=                    0.050830
 Thermal correction to Enthalpy=                  0.051774
 Thermal correction to Gibbs Free Energy=         0.021294
 Sum of electronic and zero-point Energies=           -258.121833
 Sum of electronic and thermal Energies=              -258.118380
 Sum of electronic and thermal Enthalpies=            -258.117436
 Sum of electronic and thermal Free Energies=         -258.147915

                     E (Thermal)             CV                S
                      KCal/Mol        Cal/Mol-Kelvin    Cal/Mol-Kelvin
 Total                   31.896             11.200             64.149
 Electronic               0.000              0.000              0.000
 Translational            0.889              2.981             38.656
 Rotational               0.889              2.981             23.838
 Vibrational             30.119              5.238              1.655
 Vibration     1          0.952              1.045              0.460

 Normal termination of Gaussian 09 at Mon Nov 25 19:46:14 2013.
