 Gaussian 09, Revision D.01,
 Gaussian 09:  EM64L-G09RevD.01 24-Apr-2013

 -------------------------------------
 #B3PW91/6-311G(d,p) opt=z-matrix freq
 -------------------------------------

 -------------------------------------------------------------------
 1H-tetrazole CH2N4 casno=288948 state=1 config=1 method=16 basis=21
 -------------------------------------------------------------------
 Symbolic Z-matrix:
 Charge =  0 Multiplicity = 1

 SCF Done:  E(RB3PW91) =  -258.214465380     A.U. after   14 cycles
 SCF Done:  E(RB3PW91) =  -258.216964560     A.U. after   12 cycles
 SCF Done:  E(RB3PW91) =  -258.217005113     A.U. after   11 cycles
 SCF Done:  E(RB3PW91) =  -258.217013531     A.U. after    9 cycles
 SCF Done:  E(RB3PW91) =  -258.214921260     A.U. after   11 cycles
 SCF Done:  E(RB3PW91) =  -258.217020545     A.U. after    9 cycles
 SCF Done:  E(RB3PW91) =  -258.217022563     A.U. after    8 cycles
 SCF Done:  E(RB3PW91) =  -258.217023780     A.U. after    8 cycles
 SCF Done:  E(RB3PW91) =  -258.216547244     A.U. after   11 cycles
 SCF Done:  E(RB3PW91) =  -258.217024116     A.U. after    7 cycles
 SCF Done:  E(RB3PW91) =  -258.217023300     A.U. after    9 cycles
 SCF Done:  E(RB3PW91) =  -258.217024310     A.U. after    7 cycles
 SCF Done:  E(RB3PW91) =  -258.216984118     A.U. after   10 cycles
 SCF Done:  E(RB3PW91) =  -258.210946872     A.U. after   13 cycles
 SCF Done:  E(RB3PW91) =  -258.215959328     A.U. after   13 cycles
 SCF Done:  E(RB3PW91) =  -258.211094330     A.U. after   14 cycles
 SCF Done:  E(RB3PW91) =  -258.217024312     A.U. after    7 cycles
 SCF Done:  E(RB3PW91) =  -258.216612595     A.U. after   11 cycles
 SCF Done:  E(RB3PW91) =  -258.217024301     A.U. after    7 cycles
 Optimization completed.
    -- Stationary point found.
 Normal termination of Gaussian 09 at Mon Nov 25 19:42:32 2013.

 ----------------------------------------------------------------------
 #N Geom=AllCheck Guess=TCheck SCRF=Check GenChk RB3PW91/6-311G(d,p) Fr
 eq
 ----------------------------------------------------------------------

 Structure from the checkpoint file:  "/tmp/rdj3/g09-16833/Gau-21257.chk"
 -------------------------------------------------------------------
 1H-tetrazole CH2N4 casno=288948 state=1 config=1 method=16 basis=21
 -------------------------------------------------------------------
 Charge =  0 Multiplicity = 1

                         Standard orientation:
 ---------------------------------------------------------------------
 Center     Atomic      Atomic             Coordinates (Angstroms)
 Number     Number       Type             X           Y           Z
 ---------------------------------------------------------------------
      1          6           0        1.064662    0.232508    0.000000
      2          7           0        0.000000    1.050412    0.000000
      3          7           0       -1.114746    0.301569    0.000000
      4          7           0       -0.720615   -0.920412    0.000000
      5          7           0        0.632464   -1.004164    0.000000
      6          1           0        2.092713    0.556543    0.000000
      7          1           0       -0.060407    2.056574    0.000000
 ---------------------------------------------------------------------

 SCF Done:  E(RB3PW91) =  -258.217024301     A.U. after    1 cycles

 The electronic state is 1-A'.
 Alpha  occ. eigenvalues --  -14.42239 -14.38473 -14.36677 -14.33863 -10.25489
 Alpha  occ. eigenvalues --   -1.16478  -0.96321  -0.90971  -0.69335  -0.67940
 Alpha  occ. eigenvalues --   -0.60964  -0.51185  -0.51048  -0.39007  -0.34452
 Alpha  occ. eigenvalues --   -0.32214  -0.31313  -0.29822
 Alpha virt. eigenvalues --   -0.02966   0.00761   0.02723   0.07009   0.16489
 Alpha virt. eigenvalues --    0.18222   0.21872   0.27233   0.32332   0.38899
 Alpha virt. eigenvalues --    0.39972   0.43189   0.48891   0.53974   0.55771

 Mulliken charges:
               1
     1  C    0.239719
     2  N   -0.286956
     3  N   -0.032078
     4  N   -0.086760
     5  N   -0.249361
     6  H    0.153626
     7  H    0.261809
 Sum of Mulliken charges =   0.00000

 Dipole moment (field-independent basis, Debye):
    X=              2.5139    Y=              4.7942    Z=              0.0000  Tot=              5.4133
 Quadrupole moment (field-independent basis, Debye-Ang):
   XX=            -28.7618   YY=            -26.2965   ZZ=            -28.1912
   XY=              1.8127   XZ=              0.0000   YZ=              0.0000

  Exact polarizability:  38.835   0.975  38.227   0.000   0.000  17.753
 Approx polarizability:  66.407   0.473  70.234   0.000   0.000  26.553

                      1                      2                      3
                     A"                     A"                     A"
 Frequencies --    619.8431               700.9092               747.1985
 Red. masses --      1.9743                 1.7852                 7.3764
 Frc consts  --      0.4469                 0.5167                 2.4264
 IR Inten    --     80.1815                14.4076                10.4461

                      4                      5                      6
                     A"                     A'                     A'
 Frequencies --    868.7292               983.1430              1020.9635
 Red. masses --      1.3777                 4.2815                 6.0192
 Frc consts  --      0.6126                 2.4383                 3.6966
 IR Inten    --     17.8622                 4.5215                 0.6253

                      7                      8                      9
                     A'                     A'                     A'
 Frequencies --   1065.5578              1083.6869              1152.8042
 Red. masses --      4.2872                 3.5047                 2.0567
 Frc consts  --      2.8680                 2.4250                 1.6104
 IR Inten    --     19.1145                28.1843                14.9050

                     10                     11                     12
                     A'                     A'                     A'
 Frequencies --   1275.3741              1315.1251              1469.4505
 Red. masses --      2.4401                10.1493                 3.3729
 Frc consts  --      2.3385                10.3424                 4.2910
 IR Inten    --      1.8979                16.5494                 8.7168

                     13                     14                     15
                     A'                     A'                     A'
 Frequencies --   1521.4557              3289.0237              3669.0927
 Red. masses --      3.2859                 1.1012                 1.0838
 Frc consts  --      4.4815                 7.0187                 8.5961
 IR Inten    --     16.5139                 1.5709                95.2829

 - Thermochemistry -
 -------------------
 Temperature   298.150 Kelvin.  Pressure   1.00000 Atm.
 Atom     1 has atomic number  6 and mass  12.00000

 Molecular mass:    70.02795 amu.
 Principal axes and moments of inertia in atomic units:
                           1         2         3
     Eigenvalues --   170.03572 173.03395 343.06967
           X            0.85957   0.51101   0.00000
           Y           -0.51101   0.85957   0.00000
           Z            0.00000   0.00000   1.00000
 This molecule is an asymmetric top.
 Rotational symmetry number  1.
 Rotational temperatures (Kelvin)      0.50939     0.50056     0.25247
 Rotational constants (GHZ):          10.61389    10.42998     5.26057
 Zero-point vibrational energy     124306.1 (Joules/Mol)
                                   29.70987 (Kcal/Mol)
 Warning -- explicit consideration of   1 degrees of freedom as
           vibrations may cause significant error
 Vibrational temperatures:    891.81  1008.45  1075.05  1249.91  1414.52
          (Kelvin)           1468.94  1533.10  1559.18  1658.63  1834.98
                             1892.17  2114.21  2189.03  4732.17  5279.00

 Zero-point correction=                           0.047346 (Hartree/Particle)
 Thermal correction to Energy=                    0.050777
 Thermal correction to Enthalpy=                  0.051722
 Thermal correction to Gibbs Free Energy=         0.021279
 Sum of electronic and zero-point Energies=           -258.169679
 Sum of electronic and thermal Energies=              -258.166247
 Sum of electronic and thermal Enthalpies=            -258.165303
 Sum of electronic and thermal Free Energies=         -258.195746

                     E (Thermal)             CV                S
                      KCal/Mol        Cal/Mol-Kelvin    Cal/Mol-Kelvin
 Total                   31.863             11.113             64.073
 Electronic               0.000              0.000              0.000
 Translational            0.889              2.981             38.656
 Rotational               0.889              2.981             23.827
 Vibrational             30.086              5.151              1.589
 Vibration     1          0.980              0.990              0.417

 Normal termination of Gaussian 09 at Mon Nov 25 19:42:45 2013.
