 Gaussian 09, Revision D.01,
 Gaussian 09:  EM64L-G09RevD.01 24-Apr-2013

 --------------------------------
 #B3PW91/6-31G* opt=z-matrix freq
 --------------------------------

 ------------------------------------------------------------------
 1H-tetrazole CH2N4 casno=288948 state=1 config=1 method=16 basis=1
 ------------------------------------------------------------------
 Symbolic Z-matrix:
 Charge =  0 Multiplicity = 1

 SCF Done:  E(RB3PW91) =  -258.151120875     A.U. after   14 cycles
 SCF Done:  E(RB3PW91) =  -258.154489686     A.U. after   13 cycles
 SCF Done:  E(RB3PW91) =  -258.154554972     A.U. after   11 cycles
 SCF Done:  E(RB3PW91) =  -258.154383896     A.U. after   11 cycles
 SCF Done:  E(RB3PW91) =  -258.154566703     A.U. after    9 cycles
 SCF Done:  E(RB3PW91) =  -258.154568635     A.U. after    9 cycles
 SCF Done:  E(RB3PW91) =  -258.154568866     A.U. after    8 cycles
 SCF Done:  E(RB3PW91) =  -258.154041127     A.U. after   10 cycles
 SCF Done:  E(RB3PW91) =  -258.154569077     A.U. after    8 cycles
 SCF Done:  E(RB3PW91) =  -258.154569018     A.U. after    8 cycles
 SCF Done:  E(RB3PW91) =  -258.154569171     A.U. after    6 cycles
 SCF Done:  E(RB3PW91) =  -258.154569134     A.U. after    8 cycles
 SCF Done:  E(RB3PW91) =  -258.154569185     A.U. after    5 cycles
 SCF Done:  E(RB3PW91) =  -258.154569166     A.U. after    7 cycles
 Optimization completed.
    -- Stationary point found.
 Normal termination of Gaussian 09 at Mon Nov 25 19:40:57 2013.

 ---------------------------------------------------------------------
 #N Geom=AllCheck Guess=TCheck SCRF=Check GenChk RB3PW91/6-31G(d) Freq
 ---------------------------------------------------------------------

 Structure from the checkpoint file:  "/tmp/rdj3/g09-16833/Gau-18628.chk"
 ------------------------------------------------------------------
 1H-tetrazole CH2N4 casno=288948 state=1 config=1 method=16 basis=1
 ------------------------------------------------------------------
 Charge =  0 Multiplicity = 1

                         Standard orientation:
 ---------------------------------------------------------------------
 Center     Atomic      Atomic             Coordinates (Angstroms)
 Number     Number       Type             X           Y           Z
 ---------------------------------------------------------------------
      1          6           0        1.066406    0.234292    0.000000
      2          7           0        0.000000    1.051473    0.000000
      3          7           0       -1.117577    0.303301    0.000000
      4          7           0       -0.720641   -0.923379    0.000000
      5          7           0        0.633632   -1.006473    0.000000
      6          1           0        2.095867    0.560130    0.000000
      7          1           0       -0.062204    2.059669    0.000000
 ---------------------------------------------------------------------

 SCF Done:  E(RB3PW91) =  -258.154569166     A.U. after    1 cycles

 The electronic state is 1-A'.
 Alpha  occ. eigenvalues --  -14.44443 -14.40542 -14.38747 -14.35904 -10.26992
 Alpha  occ. eigenvalues --   -1.15776  -0.95890  -0.90403  -0.69015  -0.67445
 Alpha  occ. eigenvalues --   -0.60533  -0.50684  -0.50585  -0.38555  -0.33928
 Alpha  occ. eigenvalues --   -0.31631  -0.30928  -0.29402
 Alpha virt. eigenvalues --   -0.02399   0.01362   0.06253   0.11178   0.18346
 Alpha virt. eigenvalues --    0.20067   0.28166   0.32477   0.41335   0.51640
 Alpha virt. eigenvalues --    0.52426   0.59460   0.60453   0.64620   0.66774

 Mulliken charges:
               1
     1  C    0.252712
     2  N   -0.437251
     3  N   -0.039644
     4  N   -0.082118
     5  N   -0.308821
     6  H    0.228224
     7  H    0.386898
 Sum of Mulliken charges =   0.00000

 Dipole moment (field-independent basis, Debye):
    X=              2.5096    Y=              4.7791    Z=              0.0000  Tot=              5.3979
 Quadrupole moment (field-independent basis, Debye-Ang):
   XX=            -28.4417   YY=            -25.8696   ZZ=            -28.1354
   XY=              1.7876   XZ=              0.0000   YZ=              0.0000

  Exact polarizability:  37.490   0.967  36.872   0.000   0.000  15.642
 Approx polarizability:  65.374   0.220  69.054   0.000   0.000  23.942

                      1                      2                      3
                     A"                     A"                     A"
 Frequencies --    589.8761               696.8416               744.9807
 Red. masses --      1.7854                 1.9722                 8.0858
 Frc consts  --      0.3660                 0.5642                 2.6440
 IR Inten    --     92.4277                 9.9723                 8.6962

                      4                      5                      6
                     A"                     A'                     A'
 Frequencies --    850.2993               985.1465              1019.9914
 Red. masses --      1.3563                 4.4714                 5.7534
 Frc consts  --      0.5778                 2.5568                 3.5267
 IR Inten    --     19.0222                 3.5800                 1.1344

                      7                      8                      9
                     A'                     A'                     A'
 Frequencies --   1079.3385              1094.8839              1160.3027
 Red. masses --      3.5523                 4.7265                 1.8885
 Frc consts  --      2.4382                 3.3383                 1.4980
 IR Inten    --     23.7374                24.3154                12.7068

                     10                     11                     12
                     A'                     A'                     A'
 Frequencies --   1283.8404              1318.7141              1482.4056
 Red. masses --      2.4672                10.8422                 3.3782
 Frc consts  --      2.3960                11.1089                 4.3739
 IR Inten    --      2.3675                16.1549                 8.8723

                     13                     14                     15
                     A'                     A'                     A'
 Frequencies --   1527.7289              3319.9825              3674.0241
 Red. masses --      3.3367                 1.1008                 1.0837
 Frc consts  --      4.5883                 7.1487                 8.6188
 IR Inten    --     17.9373                 0.9045                85.7689

 - Thermochemistry -
 -------------------
 Temperature   298.150 Kelvin.  Pressure   1.00000 Atm.
 Atom     1 has atomic number  6 and mass  12.00000

 Molecular mass:    70.02795 amu.
 Principal axes and moments of inertia in atomic units:
                           1         2         3
     Eigenvalues --   170.71343 173.71931 344.43274
           X            0.84313   0.53770   0.00000
           Y           -0.53770   0.84313   0.00000
           Z            0.00000   0.00000   1.00000
 This molecule is an asymmetric top.
 Rotational symmetry number  1.
 Rotational temperatures (Kelvin)      0.50736     0.49858     0.25147
 Rotational constants (GHZ):          10.57176    10.38883     5.23975
 Zero-point vibrational energy     124581.2 (Joules/Mol)
                                   29.77563 (Kcal/Mol)
 Warning -- explicit consideration of   1 degrees of freedom as
           vibrations may cause significant error
 Vibrational temperatures:    848.70  1002.60  1071.86  1223.39  1417.40
          (Kelvin)           1467.54  1552.93  1575.29  1669.41  1847.16
                             1897.33  2132.85  2198.06  4776.71  5286.09

 Zero-point correction=                           0.047450 (Hartree/Particle)
 Thermal correction to Energy=                    0.050901
 Thermal correction to Enthalpy=                  0.051845
 Thermal correction to Gibbs Free Energy=         0.021369
 Sum of electronic and zero-point Energies=           -258.107119
 Sum of electronic and thermal Energies=              -258.103668
 Sum of electronic and thermal Enthalpies=            -258.102724
 Sum of electronic and thermal Free Energies=         -258.133201

                     E (Thermal)             CV                S
                      KCal/Mol        Cal/Mol-Kelvin    Cal/Mol-Kelvin
 Total                   31.941             11.175             64.143
 Electronic               0.000              0.000              0.000
 Translational            0.889              2.981             38.656
 Rotational               0.889              2.981             23.839
 Vibrational             30.163              5.213              1.648
 Vibration     1          0.947              1.053              0.467

 Normal termination of Gaussian 09 at Mon Nov 25 19:41:05 2013.
