 Gaussian 09, Revision D.01,
 Gaussian 09:  EM64L-G09RevD.01 24-Apr-2013

 ------------------------
 #B3PW91/cc-pVTZ opt freq
 ------------------------

 ------------------------------------------------------------------
 1H-tetrazole CH2N4 casno=288948 state=1 config=1 method=16 basis=6
 ------------------------------------------------------------------
 Symbolic Z-matrix:
 Charge =  0 Multiplicity = 1

 SCF Done:  E(RB3PW91) =  -258.243968225     A.U. after   14 cycles
 SCF Done:  E(RB3PW91) =  -258.245951257     A.U. after   11 cycles
 SCF Done:  E(RB3PW91) =  -258.246000500     A.U. after    9 cycles
 SCF Done:  E(RB3PW91) =  -258.246008556     A.U. after    9 cycles
 SCF Done:  E(RB3PW91) =  -258.246012841     A.U. after    8 cycles
 SCF Done:  E(RB3PW91) =  -258.246013641     A.U. after    8 cycles
 Optimization completed.
    -- Stationary point found.
 Normal termination of Gaussian 09 at Mon Dec 16 16:57:30 2013.

 --------------------------------------------------------------------
 #N Geom=AllCheck Guess=TCheck SCRF=Check GenChk RB3PW91/CC-pVTZ Freq
 --------------------------------------------------------------------

 Structure from the checkpoint file:  "/tmp/rdj3/g09-9462/Gau-9757.chk"
 ------------------------------------------------------------------
 1H-tetrazole CH2N4 casno=288948 state=1 config=1 method=16 basis=6
 ------------------------------------------------------------------
 Charge =  0 Multiplicity = 1

                         Standard orientation:
 ---------------------------------------------------------------------
 Center     Atomic      Atomic             Coordinates (Angstroms)
 Number     Number       Type             X           Y           Z
 ---------------------------------------------------------------------
      1          6           0        1.062260    0.233076    0.000000
      2          7           0        0.000000    1.048235    0.000000
      3          7           0       -1.112212    0.301067    0.000000
      4          7           0       -0.719938   -0.919438    0.000000
      5          7           0        0.631618   -1.002495    0.000000
      6          1           0        2.088873    0.557433    0.000000
      7          1           0       -0.058709    2.052531    0.000000
 ---------------------------------------------------------------------

 SCF Done:  E(RB3PW91) =  -258.246013641     A.U. after    1 cycles

 The electronic state is 1-A'.
 Alpha  occ. eigenvalues --  -14.42733 -14.39143 -14.37454 -14.34546 -10.25706
 Alpha  occ. eigenvalues --   -1.16224  -0.96138  -0.90734  -0.69178  -0.67837
 Alpha  occ. eigenvalues --   -0.60835  -0.51275  -0.50892  -0.39082  -0.34459
 Alpha  occ. eigenvalues --   -0.32163  -0.31355  -0.29949
 Alpha virt. eigenvalues --   -0.02932   0.00604   0.02337   0.06778   0.14913
 Alpha virt. eigenvalues --    0.16636   0.17432   0.24458   0.27966   0.29058
 Alpha virt. eigenvalues --    0.36432   0.36855   0.39342   0.41667   0.42729

 Mulliken charges:
               1
     1  C    0.002874
     2  N    0.011432
     3  N   -0.085029
     4  N   -0.075198
     5  N   -0.159507
     6  H    0.130308
     7  H    0.175122
 Sum of Mulliken charges =   0.00000

 Dipole moment (field-independent basis, Debye):
    X=              2.4499    Y=              4.7034    Z=              0.0000  Tot=              5.3032
 Quadrupole moment (field-independent basis, Debye-Ang):
   XX=            -28.7327   YY=            -26.1776   ZZ=            -28.1637
   XY=              1.8113   XZ=              0.0000   YZ=              0.0000

  Exact polarizability:  41.256   0.828  40.502   0.000   0.000  20.828
 Approx polarizability:  69.604   0.550  72.903   0.000   0.000  32.034

                      1                      2                      3
                     A"                     A"                     A"
 Frequencies --    600.8616               698.2003               751.1016
 Red. masses --      1.6838                 2.0177                 8.2989
 Frc consts  --      0.3582                 0.5795                 2.7585
 IR Inten    --     78.5304                 6.1586                 8.2148

                      4                      5                      6
                     A"                     A'                     A'
 Frequencies --    870.5174               981.7063              1019.3993
 Red. masses --      1.3926                 4.4410                 5.9628
 Frc consts  --      0.6218                 2.5217                 3.6508
 IR Inten    --     17.6262                 4.0072                 0.6153

                      7                      8                      9
                     A'                     A'                     A'
 Frequencies --   1063.0629              1077.7552              1151.9898
 Red. masses --      4.5048                 3.3917                 2.0354
 Frc consts  --      2.9994                 2.3211                 1.5915
 IR Inten    --     16.7038                28.6650                14.9799

                     10                     11                     12
                     A'                     A'                     A'
 Frequencies --   1273.0234              1311.3611              1466.9323
 Red. masses --      2.3694                10.8594                 3.2515
 Frc consts  --      2.2624                11.0027                 4.1225
 IR Inten    --      2.4954                12.8162                 8.2589

                     13                     14                     15
                     A'                     A'                     A'
 Frequencies --   1516.8462              3282.9453              3665.8647
 Red. masses --      3.4382                 1.1012                 1.0836
 Frc consts  --      4.6609                 6.9927                 8.5800
 IR Inten    --     15.7841                 1.2990                89.3974

 - Thermochemistry -
 -------------------
 Temperature   298.150 Kelvin.  Pressure   1.00000 Atm.
 Atom     1 has atomic number  6 and mass  12.00000

 Molecular mass:    70.02795 amu.
 Principal axes and moments of inertia in atomic units:
                           1         2         3
     Eigenvalues --   169.55725 172.30641 341.86366
           X            0.85982   0.51059   0.00000
           Y           -0.51059   0.85982   0.00000
           Z            0.00000   0.00000   1.00000
 This molecule is an asymmetric top.
 Rotational symmetry number  1.
 Rotational temperatures (Kelvin)      0.51082     0.50267     0.25336
 Rotational constants (GHZ):          10.64385    10.47402     5.27913
 Zero-point vibrational energy     124002.3 (Joules/Mol)
                                   29.63726 (Kcal/Mol)
 Warning -- explicit consideration of   1 degrees of freedom as
           vibrations may cause significant error
 Vibrational temperatures:    864.50  1004.55  1080.67  1252.48  1412.45
          (Kelvin)           1466.69  1529.51  1550.65  1657.45  1831.59
                             1886.75  2110.59  2182.40  4723.42  5274.36

 Zero-point correction=                           0.047230 (Hartree/Particle)
 Thermal correction to Energy=                    0.050673
 Thermal correction to Enthalpy=                  0.051617
 Thermal correction to Gibbs Free Energy=         0.021163
 Sum of electronic and zero-point Energies=           -258.198784
 Sum of electronic and thermal Energies=              -258.195341
 Sum of electronic and thermal Enthalpies=            -258.194397
 Sum of electronic and thermal Free Energies=         -258.224851

                     E (Thermal)             CV                S
                      KCal/Mol        Cal/Mol-Kelvin    Cal/Mol-Kelvin
 Total                   31.798             11.165             64.097
 Electronic               0.000              0.000              0.000
 Translational            0.889              2.981             38.656
 Rotational               0.889              2.981             23.817
 Vibrational             30.020              5.203              1.624
 Vibration     1          0.959              1.030              0.448

 Optimization completed.
    -- Stationary point found.
 Normal termination of Gaussian 09 at Mon Dec 16 16:58:42 2013.
