 Gaussian 09, Revision D.01,
 Gaussian 09:  EM64L-G09RevD.01 24-Apr-2013

 ------------------------
 #B3PW91/6-311G* opt freq
 ------------------------

 ------------------------------------------------------------------
 1H-tetrazole CH2N4 casno=288948 state=1 config=1 method=16 basis=7
 ------------------------------------------------------------------
 Symbolic Z-matrix:
 Charge =  0 Multiplicity = 1

 SCF Done:  E(RB3PW91) =  -258.209485051     A.U. after   14 cycles
 SCF Done:  E(RB3PW91) =  -258.211964322     A.U. after   12 cycles
 SCF Done:  E(RB3PW91) =  -258.212013661     A.U. after    9 cycles
 SCF Done:  E(RB3PW91) =  -258.212020823     A.U. after    9 cycles
 SCF Done:  E(RB3PW91) =  -258.212022916     A.U. after    8 cycles
 Optimization completed.
    -- Stationary point found.
 Normal termination of Gaussian 09 at Mon Dec 16 16:58:56 2013.

 ----------------------------------------------------------------------
 #N Geom=AllCheck Guess=TCheck SCRF=Check GenChk RB3PW91/6-311G(d) Freq
 ----------------------------------------------------------------------

 Structure from the checkpoint file:  "/tmp/rdj3/g09-9462/Gau-10420.chk"
 ------------------------------------------------------------------
 1H-tetrazole CH2N4 casno=288948 state=1 config=1 method=16 basis=7
 ------------------------------------------------------------------
 Charge =  0 Multiplicity = 1

                         Standard orientation:
 ---------------------------------------------------------------------
 Center     Atomic      Atomic             Coordinates (Angstroms)
 Number     Number       Type             X           Y           Z
 ---------------------------------------------------------------------
      1          6           0        1.064021    0.232328    0.000000
      2          7           0        0.000000    1.050565    0.000000
      3          7           0       -1.114927    0.301653    0.000000
      4          7           0       -0.720722   -0.920314    0.000000
      5          7           0        0.633511   -1.004279    0.000000
      6          1           0        2.092520    0.556931    0.000000
      7          1           0       -0.061688    2.055725    0.000000
 ---------------------------------------------------------------------

 SCF Done:  E(RB3PW91) =  -258.212022916     A.U. after    1 cycles

 The electronic state is 1-A'.
 Alpha  occ. eigenvalues --  -14.42219 -14.38459 -14.36645 -14.33822 -10.25501
 Alpha  occ. eigenvalues --   -1.16468  -0.96346  -0.90985  -0.69440  -0.67954
 Alpha  occ. eigenvalues --   -0.61069  -0.51149  -0.51105  -0.39005  -0.34391
 Alpha  occ. eigenvalues --   -0.32182  -0.31295  -0.29819
 Alpha virt. eigenvalues --   -0.02833   0.00845   0.02687   0.07039   0.16566
 Alpha virt. eigenvalues --    0.18360   0.21883   0.27323   0.32327   0.38918
 Alpha virt. eigenvalues --    0.39985   0.43137   0.49313   0.54495   0.55903

 Mulliken charges:
               1
     1  C    0.139573
     2  N   -0.437831
     3  N   -0.014165
     4  N   -0.088192
     5  N   -0.244328
     6  H    0.262063
     7  H    0.382880
 Sum of Mulliken charges =   0.00000

 Dipole moment (field-independent basis, Debye):
    X=              2.5189    Y=              4.8278    Z=              0.0000  Tot=              5.4454
 Quadrupole moment (field-independent basis, Debye-Ang):
   XX=            -28.7432   YY=            -26.2128   ZZ=            -28.2798
   XY=              1.8180   XZ=              0.0000   YZ=              0.0000

  Exact polarizability:  38.624   0.945  37.997   0.000   0.000  17.509
 Approx polarizability:  65.929   0.381  69.664   0.000   0.000  26.132

                      1                      2                      3
                     A"                     A"                     A"
 Frequencies --    612.0108               702.2471               747.5076
 Red. masses --      1.9598                 1.7964                 7.5469
 Frc consts  --      0.4325                 0.5220                 2.4846
 IR Inten    --     87.9064                14.6369                 9.9631

                      4                      5                      6
                     A"                     A'                     A'
 Frequencies --    853.7411               982.1416              1022.5285
 Red. masses --      1.3723                 4.4638                 6.3617
 Frc consts  --      0.5893                 2.5369                 3.9190
 IR Inten    --     20.1708                 4.8008                 0.5319

                      7                      8                      9
                     A'                     A'                     A'
 Frequencies --   1066.6466              1084.8236              1154.8657
 Red. masses --      4.5327                 3.5666                 2.0038
 Frc consts  --      3.0384                 2.4730                 1.5746
 IR Inten    --     17.3230                29.8135                14.5603

                     10                     11                     12
                     A'                     A'                     A'
 Frequencies --   1280.1311              1315.8179              1478.2880
 Red. masses --      2.4453                10.2703                 3.3984
 Frc consts  --      2.3609                10.4767                 4.3757
 IR Inten    --      1.9005                16.8234                 8.9195

                     13                     14                     15
                     A'                     A'                     A'
 Frequencies --   1530.8975              3291.7502              3683.9959
 Red. masses --      3.0143                 1.1013                 1.0836
 Frc consts  --      4.1622                 7.0306                 8.6646
 IR Inten    --     18.1073                 0.4693                75.7282

 - Thermochemistry -
 -------------------
 Temperature   298.150 Kelvin.  Pressure   1.00000 Atm.
 Atom     1 has atomic number  6 and mass  12.00000

 Molecular mass:    70.02795 amu.
 Principal axes and moments of inertia in atomic units:
                           1         2         3
     Eigenvalues --   169.97595 173.13405 343.11000
           X            0.85502   0.51859   0.00000
           Y           -0.51859   0.85502   0.00000
           Z            0.00000   0.00000   1.00000
 This molecule is an asymmetric top.
 Rotational symmetry number  1.
 Rotational temperatures (Kelvin)      0.50957     0.50027     0.25244
 Rotational constants (GHZ):          10.61763    10.42395     5.25995
 Zero-point vibrational energy     124455.8 (Joules/Mol)
                                   29.74566 (Kcal/Mol)
 Warning -- explicit consideration of   1 degrees of freedom as
           vibrations may cause significant error
 Vibrational temperatures:    880.55  1010.38  1075.50  1228.34  1413.08
          (Kelvin)           1471.19  1534.66  1560.82  1661.59  1841.82
                             1893.17  2126.92  2202.62  4736.09  5300.44

 Zero-point correction=                           0.047403 (Hartree/Particle)
 Thermal correction to Energy=                    0.050840
 Thermal correction to Enthalpy=                  0.051784
 Thermal correction to Gibbs Free Energy=         0.021333
 Sum of electronic and zero-point Energies=           -258.164620
 Sum of electronic and thermal Energies=              -258.161183
 Sum of electronic and thermal Enthalpies=            -258.160238
 Sum of electronic and thermal Free Energies=         -258.190690

                     E (Thermal)             CV                S
                      KCal/Mol        Cal/Mol-Kelvin    Cal/Mol-Kelvin
 Total                   31.903             11.137             64.091
 Electronic               0.000              0.000              0.000
 Translational            0.889              2.981             38.656
 Rotational               0.889              2.981             23.828
 Vibrational             30.125              5.175              1.607
 Vibration     1          0.971              1.006              0.429

 Optimization completed.
    -- Stationary point found.
 Normal termination of Gaussian 09 at Mon Dec 16 16:59:07 2013.
