 Gaussian 09, Revision D.01,
 Gaussian 09:  EM64L-G09RevD.01 24-Apr-2013

 --------------------------------
 #B3PW91/STO-3G opt=z-matrix freq
 --------------------------------

 -------------------------------------------------------------------
 1H-tetrazole CH2N4 casno=288948 state=1 config=1 method=16 basis=20
 -------------------------------------------------------------------
 Symbolic Z-matrix:
 Charge =  0 Multiplicity = 1

 SCF Done:  E(RB3PW91) =  -254.782752659     A.U. after   13 cycles
 SCF Done:  E(RB3PW91) =  -254.830935037     A.U. after   13 cycles
 SCF Done:  E(RB3PW91) =  -254.833897067     A.U. after   13 cycles
 SCF Done:  E(RB3PW91) =  -254.832817009     A.U. after   12 cycles
 SCF Done:  E(RB3PW91) =  -254.834627551     A.U. after   11 cycles
 SCF Done:  E(RB3PW91) =  -254.834716023     A.U. after   12 cycles
 SCF Done:  E(RB3PW91) =  -254.834718662     A.U. after   11 cycles
 SCF Done:  E(RB3PW91) =  -254.834708119     A.U. after   10 cycles
 SCF Done:  E(RB3PW91) =  -254.834733655     A.U. after    8 cycles
 SCF Done:  E(RB3PW91) =  -254.834732054     A.U. after   10 cycles
 SCF Done:  E(RB3PW91) =  -254.834734470     A.U. after    7 cycles
 SCF Done:  E(RB3PW91) =  -254.834737242     A.U. after    9 cycles
 SCF Done:  E(RB3PW91) =  -254.834731755     A.U. after   11 cycles
 SCF Done:  E(RB3PW91) =  -254.834737328     A.U. after    7 cycles
 SCF Done:  E(RB3PW91) =  -254.834737212     A.U. after    9 cycles
 Optimization completed.
    -- Stationary point found.
 Normal termination of Gaussian 09 at Mon Nov 25 19:41:25 2013.

 -------------------------------------------------------------------
 #N Geom=AllCheck Guess=TCheck SCRF=Check GenChk RB3PW91/STO-3G Freq
 -------------------------------------------------------------------

 Structure from the checkpoint file:  "/tmp/rdj3/g09-16833/Gau-19904.chk"
 -------------------------------------------------------------------
 1H-tetrazole CH2N4 casno=288948 state=1 config=1 method=16 basis=20
 -------------------------------------------------------------------
 Charge =  0 Multiplicity = 1

                         Standard orientation:
 ---------------------------------------------------------------------
 Center     Atomic      Atomic             Coordinates (Angstroms)
 Number     Number       Type             X           Y           Z
 ---------------------------------------------------------------------
      1          6           0        1.101666    0.255888    0.000000
      2          7           0        0.000000    1.098552    0.000000
      3          7           0       -1.193779    0.314813    0.000000
      4          7           0       -0.750774   -0.982385    0.000000
      5          7           0        0.699918   -1.045358    0.000000
      6          1           0        2.137454    0.619236    0.000000
      7          1           0       -0.034994    2.146082    0.000000
 ---------------------------------------------------------------------

 SCF Done:  E(RB3PW91) =  -254.834737212     A.U. after    1 cycles

 The electronic state is 1-A'.
 Alpha  occ. eigenvalues --  -14.27438 -14.20549 -14.17706 -14.15496 -10.09501
 Alpha  occ. eigenvalues --   -1.06208  -0.88623  -0.84184  -0.62512  -0.60523
 Alpha  occ. eigenvalues --   -0.54027  -0.43701  -0.41368  -0.29782  -0.25289
 Alpha  occ. eigenvalues --   -0.24231  -0.23372  -0.21759
 Alpha virt. eigenvalues --    0.03832   0.08223   0.21262   0.24079   0.33644
 Alpha virt. eigenvalues --    0.34851   0.36814   0.50822   0.56744

 Mulliken charges:
               1
     1  C    0.064989
     2  N   -0.196470
     3  N   -0.044789
     4  N   -0.065103
     5  N   -0.151733
     6  H    0.130493
     7  H    0.262613
 Sum of Mulliken charges =   0.00000

 Dipole moment (field-independent basis, Debye):
    X=              2.1254    Y=              4.4151    Z=              0.0000  Tot=              4.9000
 Quadrupole moment (field-independent basis, Debye-Ang):
   XX=            -27.3718   YY=            -24.6320   ZZ=            -25.9297
   XY=              1.7750   XZ=              0.0000   YZ=              0.0000

  Exact polarizability:  24.783   1.204  25.614   0.000   0.000   6.198
 Approx polarizability:  55.979  -1.131  64.896   0.000   0.000   8.062

                      1                      2                      3
                     A"                     A"                     A"
 Frequencies --    479.1410               641.0286               656.0972
 Red. masses --      1.9094                 2.0518                 7.7880
 Frc consts  --      0.2583                 0.4967                 1.9752
 IR Inten    --     82.2981                15.2272                 8.3534

                      4                      5                      6
                     A"                     A'                     A'
 Frequencies --    836.4953               915.4408               959.6983
 Red. masses --      1.2589                 5.9508                 5.5864
 Frc consts  --      0.5190                 2.9382                 3.0314
 IR Inten    --     11.7938                 1.3357                 0.0587

                      7                      8                      9
                     A'                     A'                     A'
 Frequencies --   1027.2806              1035.9464              1134.9165
 Red. masses --      5.6676                 3.0876                 1.5461
 Frc consts  --      3.5239                 1.9523                 1.1733
 IR Inten    --     16.0612                17.2566                 7.4075

                     10                     11                     12
                     A'                     A'                     A'
 Frequencies --   1220.7450              1250.0695              1469.6545
 Red. masses --      8.3245                 2.9665                 3.6704
 Frc consts  --      7.3090                 2.7312                 4.6708
 IR Inten    --      0.4069                 1.7766                13.9796

                     13                     14                     15
                     A'                     A'                     A'
 Frequencies --   1506.0633              3516.2621              3742.4803
 Red. masses --      3.3856                 1.1012                 1.0867
 Frc consts  --      4.5245                 8.0217                 8.9679
 IR Inten    --     31.5471                36.7680                83.2041

 - Thermochemistry -
 -------------------
 Temperature   298.150 Kelvin.  Pressure   1.00000 Atm.
 Atom     1 has atomic number  6 and mass  12.00000

 Molecular mass:    70.02795 amu.
 Principal axes and moments of inertia in atomic units:
                           1         2         3
     Eigenvalues --   187.52887 193.23811 380.76698
           X            0.90268   0.43032   0.00000
           Y           -0.43032   0.90268   0.00000
           Z            0.00000   0.00000   1.00000
 This molecule is an asymmetric top.
 Rotational symmetry number  1.
 Rotational temperatures (Kelvin)      0.46187     0.44822     0.22747
 Rotational constants (GHZ):           9.62380     9.33947     4.73975
 Zero-point vibrational energy     121967.2 (Joules/Mol)
                                   29.15085 (Kcal/Mol)
 Warning -- explicit consideration of   1 degrees of freedom as
           vibrations may cause significant error
 Vibrational temperatures:    689.38   922.30   943.98  1203.53  1317.11
          (Kelvin)           1380.79  1478.03  1490.49  1632.89  1756.38
                             1798.57  2114.50  2166.89  5059.11  5384.59

 Zero-point correction=                           0.046455 (Hartree/Particle)
 Thermal correction to Energy=                    0.050087
 Thermal correction to Enthalpy=                  0.051031
 Thermal correction to Gibbs Free Energy=         0.020152
 Sum of electronic and zero-point Energies=           -254.788282
 Sum of electronic and thermal Energies=              -254.784651
 Sum of electronic and thermal Enthalpies=            -254.783706
 Sum of electronic and thermal Free Energies=         -254.814585

                     E (Thermal)             CV                S
                      KCal/Mol        Cal/Mol-Kelvin    Cal/Mol-Kelvin
 Total                   31.430             12.077             64.989
 Electronic               0.000              0.000              0.000
 Translational            0.889              2.981             38.656
 Rotational               0.889              2.981             24.138
 Vibrational             29.652              6.115              2.195
 Vibration     1          0.836              1.296              0.712

 Normal termination of Gaussian 09 at Mon Nov 25 19:41:28 2013.
