 Gaussian 09, Revision D.01,
 Gaussian 09:  EM64L-G09RevD.01 24-Apr-2013

 -------------------------------
 #B3PW91/6-31G opt=z-matrix freq
 -------------------------------

 ------------------------------------------------------------------
 1H-tetrazole CH2N4 casno=288948 state=1 config=1 method=16 basis=9
 ------------------------------------------------------------------
 Symbolic Z-matrix:
 Charge =  0 Multiplicity = 1

 SCF Done:  E(RB3PW91) =  -258.021174983     A.U. after   14 cycles
 SCF Done:  E(RB3PW91) =  -258.032967861     A.U. after   14 cycles
 SCF Done:  E(RB3PW91) =  -258.033317790     A.U. after   13 cycles
 SCF Done:  E(RB3PW91) =  -258.032400751     A.U. after   13 cycles
 SCF Done:  E(RB3PW91) =  -258.033481149     A.U. after   11 cycles
 SCF Done:  E(RB3PW91) =  -258.033505895     A.U. after   10 cycles
 SCF Done:  E(RB3PW91) =  -258.033398942     A.U. after   12 cycles
 SCF Done:  E(RB3PW91) =  -258.033506942     A.U. after    8 cycles
 SCF Done:  E(RB3PW91) =  -258.033511553     A.U. after    9 cycles
 SCF Done:  E(RB3PW91) =  -258.033499125     A.U. after   11 cycles
 SCF Done:  E(RB3PW91) =  -258.033512943     A.U. after    8 cycles
 SCF Done:  E(RB3PW91) =  -258.033513021     A.U. after    7 cycles
 SCF Done:  E(RB3PW91) =  -258.033512817     A.U. after   10 cycles
 SCF Done:  E(RB3PW91) =  -258.033512924     A.U. after    5 cycles
 SCF Done:  E(RB3PW91) =  -258.033512811     A.U. after    8 cycles
 SCF Done:  E(RB3PW91) =  -258.033512940     A.U. after    6 cycles
 SCF Done:  E(RB3PW91) =  -258.033513010     A.U. after    7 cycles
 SCF Done:  E(RB3PW91) =  -258.033513028     A.U. after    7 cycles
 SCF Done:  E(RB3PW91) =  -258.033512989     A.U. after    9 cycles
 Optimization completed.
    -- Stationary point found.
 Normal termination of Gaussian 09 at Mon Nov 25 19:54:29 2013.

 ------------------------------------------------------------------
 #N Geom=AllCheck Guess=TCheck SCRF=Check GenChk RB3PW91/6-31G Freq
 ------------------------------------------------------------------

 Structure from the checkpoint file:  "/tmp/rdj3/g09-16833/Gau-3593.chk"
 ------------------------------------------------------------------
 1H-tetrazole CH2N4 casno=288948 state=1 config=1 method=16 basis=9
 ------------------------------------------------------------------
 Charge =  0 Multiplicity = 1

                         Standard orientation:
 ---------------------------------------------------------------------
 Center     Atomic      Atomic             Coordinates (Angstroms)
 Number     Number       Type             X           Y           Z
 ---------------------------------------------------------------------
      1          6           0        1.081414    0.252122    0.000000
      2          7           0        0.000000    1.068809    0.000000
      3          7           0       -1.146038    0.297854    0.000000
      4          7           0       -0.735060   -0.949262    0.000000
      5          7           0        0.662719   -1.011797    0.000000
      6          1           0        2.105908    0.575398    0.000000
      7          1           0       -0.065744    2.072647    0.000000
 ---------------------------------------------------------------------

 SCF Done:  E(RB3PW91) =  -258.033512989     A.U. after    1 cycles

 The electronic state is 1-A'.
 Alpha  occ. eigenvalues --  -14.45027 -14.42569 -14.40634 -14.37836 -10.28551
 Alpha  occ. eigenvalues --   -1.18155  -0.97548  -0.93328  -0.70300  -0.68918
 Alpha  occ. eigenvalues --   -0.61896  -0.51831  -0.51206  -0.38465  -0.34936
 Alpha  occ. eigenvalues --   -0.33102  -0.31369  -0.30220
 Alpha virt. eigenvalues --   -0.04742  -0.00859   0.05676   0.09510   0.15127
 Alpha virt. eigenvalues --    0.17903   0.23746   0.30173   0.37218   0.51802
 Alpha virt. eigenvalues --    0.53522   0.60911   0.64650   0.65740   0.66693

 Mulliken charges:
               1
     1  C    0.299768
     2  N   -0.574291
     3  N    0.018895
     4  N   -0.091951
     5  N   -0.297188
     6  H    0.250995
     7  H    0.393771
 Sum of Mulliken charges =   0.00000

 Dipole moment (field-independent basis, Debye):
    X=              2.7477    Y=              5.1673    Z=              0.0000  Tot=              5.8524
 Quadrupole moment (field-independent basis, Debye-Ang):
   XX=            -29.6109   YY=            -27.1751   ZZ=            -28.6365
   XY=              2.0538   XZ=              0.0000   YZ=              0.0000

  Exact polarizability:  37.745   1.055  37.214   0.000   0.000  13.964
 Approx polarizability:  67.380  -0.207  72.703   0.000   0.000  18.096

                      1                      2                      3
                     A"                     A"                     A"
 Frequencies --    672.7459               718.4503               741.4729
 Red. masses --      4.0998                12.0721                 1.1244
 Frc consts  --      1.0932                 3.6714                 0.3642
 IR Inten    --     12.3827                 0.1235               162.0388

                      4                      5                      6
                     A'                     A"                     A'
 Frequencies --    871.7355               886.0614               952.4860
 Red. masses --      8.4029                 1.3957                 5.8054
 Frc consts  --      3.7623                 0.6456                 3.1031
 IR Inten    --      8.6488                15.7456                17.1450

                      7                      8                      9
                     A'                     A'                     A'
 Frequencies --   1012.4481              1040.3727              1152.1813
 Red. masses --      6.7358                 4.7438                 2.0860
 Frc consts  --      4.0681                 3.0252                 1.6316
 IR Inten    --      4.7837                13.2998                14.1329

                     10                     11                     12
                     A'                     A'                     A'
 Frequencies --   1202.7818              1251.5762              1422.7301
 Red. masses --      4.0326                 2.8354                 3.1405
 Frc consts  --      3.4373                 2.6168                 3.7453
 IR Inten    --     12.3311                 1.5258                 3.9396

                     13                     14                     15
                     A'                     A'                     A'
 Frequencies --   1492.2811              3369.7387              3727.0161
 Red. masses --      2.1343                 1.1024                 1.0846
 Frc consts  --      2.8004                 7.3755                 8.8763
 IR Inten    --     37.9581                 4.6594               104.4800

 - Thermochemistry -
 -------------------
 Temperature   298.150 Kelvin.  Pressure   1.00000 Atm.
 Atom     1 has atomic number  6 and mass  12.00000

 Molecular mass:    70.02795 amu.
 Principal axes and moments of inertia in atomic units:
                           1         2         3
     Eigenvalues --   176.78919 180.58877 357.37796
           X            0.99363   0.11272   0.00000
           Y           -0.11272   0.99363   0.00000
           Z            0.00000   0.00000   1.00000
 This molecule is an asymmetric top.
 Rotational symmetry number  1.
 Rotational temperatures (Kelvin)      0.48993     0.47962     0.24236
 Rotational constants (GHZ):          10.20844     9.99365     5.04995
 Zero-point vibrational energy     122701.4 (Joules/Mol)
                                   29.32635 (Kcal/Mol)
 Vibrational temperatures:    967.93  1033.69  1066.81  1254.23  1274.84
          (Kelvin)           1370.41  1456.69  1496.86  1657.73  1730.53
                             1800.74  2046.99  2147.06  4848.30  5362.34

 Zero-point correction=                           0.046735 (Hartree/Particle)
 Thermal correction to Energy=                    0.050184
 Thermal correction to Enthalpy=                  0.051128
 Thermal correction to Gibbs Free Energy=         0.020611
 Sum of electronic and zero-point Energies=           -257.986778
 Sum of electronic and thermal Energies=              -257.983329
 Sum of electronic and thermal Enthalpies=            -257.982385
 Sum of electronic and thermal Free Energies=         -258.012902

                     E (Thermal)             CV                S
                      KCal/Mol        Cal/Mol-Kelvin    Cal/Mol-Kelvin
 Total                   31.491             11.370             64.229
 Electronic               0.000              0.000              0.000
 Translational            0.889              2.981             38.656
 Rotational               0.889              2.981             23.949
 Vibrational             29.713              5.409              1.624

 Normal termination of Gaussian 09 at Mon Nov 25 19:54:33 2013.
