 Gaussian 09, Revision D.01,
 Gaussian 09:  EM64L-G09RevD.01 24-Apr-2013

 ---------------------------------
 #B3PW91/cc-pVDZ opt=z-matrix freq
 ---------------------------------

 ------------------------------------------------------------------
 1H-tetrazole CH2N4 casno=288948 state=1 config=1 method=16 basis=5
 ------------------------------------------------------------------
 Symbolic Z-matrix:
 Charge =  0 Multiplicity = 1

 SCF Done:  E(RB3PW91) =  -258.174200204     A.U. after   14 cycles
 SCF Done:  E(RB3PW91) =  -258.177748553     A.U. after   11 cycles
 SCF Done:  E(RB3PW91) =  -258.177803972     A.U. after   11 cycles
 SCF Done:  E(RB3PW91) =  -258.177523030     A.U. after   11 cycles
 SCF Done:  E(RB3PW91) =  -258.177816471     A.U. after    9 cycles
 SCF Done:  E(RB3PW91) =  -258.177823127     A.U. after   10 cycles
 SCF Done:  E(RB3PW91) =  -258.177807120     A.U. after   11 cycles
 SCF Done:  E(RB3PW91) =  -258.177823680     A.U. after    8 cycles
 SCF Done:  E(RB3PW91) =  -258.177811626     A.U. after    9 cycles
 SCF Done:  E(RB3PW91) =  -258.177823835     A.U. after    7 cycles
 SCF Done:  E(RB3PW91) =  -258.177826823     A.U. after    9 cycles
 SCF Done:  E(RB3PW91) =  -258.177673862     A.U. after   11 cycles
 SCF Done:  E(RB3PW91) =  -258.177827503     A.U. after    7 cycles
 SCF Done:  E(RB3PW91) =  -258.177820290     A.U. after   10 cycles
 SCF Done:  E(RB3PW91) =  -258.177827693     A.U. after    7 cycles
 SCF Done:  E(RB3PW91) =  -258.177827663     A.U. after    7 cycles
 Optimization completed.
    -- Stationary point found.
 Normal termination of Gaussian 09 at Mon Nov 25 19:46:54 2013.

 --------------------------------------------------------------------
 #N Geom=AllCheck Guess=TCheck SCRF=Check GenChk RB3PW91/CC-pVDZ Freq
 --------------------------------------------------------------------

 Structure from the checkpoint file:  "/tmp/rdj3/g09-16833/Gau-29275.chk"
 ------------------------------------------------------------------
 1H-tetrazole CH2N4 casno=288948 state=1 config=1 method=16 basis=5
 ------------------------------------------------------------------
 Charge =  0 Multiplicity = 1

                         Standard orientation:
 ---------------------------------------------------------------------
 Center     Atomic      Atomic             Coordinates (Angstroms)
 Number     Number       Type             X           Y           Z
 ---------------------------------------------------------------------
      1          6           0        1.066319    0.231644    0.000000
      2          7           0        0.000000    1.052447    0.000000
      3          7           0       -1.115613    0.305110    0.000000
      4          7           0       -0.722052   -0.921456    0.000000
      5          7           0        0.631369   -1.009411    0.000000
      6          1           0        2.101981    0.559002    0.000000
      7          1           0       -0.055824    2.064310    0.000000
 ---------------------------------------------------------------------

 SCF Done:  E(RB3PW91) =  -258.177827663     A.U. after    1 cycles

 The electronic state is 1-A'.
 Alpha  occ. eigenvalues --  -14.43451 -14.39435 -14.37655 -14.35028 -10.26534
 Alpha  occ. eigenvalues --   -1.15718  -0.95767  -0.90255  -0.68668  -0.67290
 Alpha  occ. eigenvalues --   -0.60141  -0.50504  -0.50310  -0.38319  -0.33822
 Alpha  occ. eigenvalues --   -0.31501  -0.30703  -0.29203
 Alpha virt. eigenvalues --   -0.02329   0.01385   0.04208   0.08557   0.17957
 Alpha virt. eigenvalues --    0.19370   0.26359   0.29212   0.38178   0.43671
 Alpha virt. eigenvalues --    0.46176   0.53760   0.56582   0.57985   0.65678

 Mulliken charges:
               1
     1  C    0.204586
     2  N   -0.056509
     3  N   -0.072452
     4  N   -0.089146
     5  N   -0.195164
     6  H    0.073686
     7  H    0.135000
 Sum of Mulliken charges =   0.00000

 Dipole moment (field-independent basis, Debye):
    X=              2.4189    Y=              4.6713    Z=              0.0000  Tot=              5.2605
 Quadrupole moment (field-independent basis, Debye-Ang):
   XX=            -28.4677   YY=            -25.8781   ZZ=            -27.9034
   XY=              1.7333   XZ=              0.0000   YZ=              0.0000

  Exact polarizability:  37.797   1.101  36.840   0.000   0.000  16.144
 Approx polarizability:  66.084   0.561  69.384   0.000   0.000  24.704

                      1                      2                      3
                     A"                     A"                     A"
 Frequencies --    594.6473               695.8904               747.5881
 Red. masses --      1.7517                 1.9844                 7.7876
 Frc consts  --      0.3649                 0.5662                 2.5644
 IR Inten    --     76.0223                 7.2647                 8.6515

                      4                      5                      6
                     A"                     A'                     A'
 Frequencies --    855.4944               981.0619              1017.2232
 Red. masses --      1.3811                 3.7342                 5.3169
 Frc consts  --      0.5955                 2.1176                 3.2414
 IR Inten    --     17.9136                 3.4269                 1.5927

                      7                      8                      9
                     A'                     A'                     A'
 Frequencies --   1073.8123              1088.3272              1147.5124
 Red. masses --      2.8971                 4.3335                 2.1931
 Frc consts  --      1.9682                 3.0242                 1.7014
 IR Inten    --     29.7695                19.0588                13.0082

                     10                     11                     12
                     A'                     A'                     A'
 Frequencies --   1270.1153              1320.6815              1471.8145
 Red. masses --      2.5808                10.3957                 3.4194
 Frc consts  --      2.4530                10.6831                 4.3643
 IR Inten    --      1.8838                15.0272                 8.0095

                     13                     14                     15
                     A'                     A'                     A'
 Frequencies --   1517.1002              3298.7980              3648.6323
 Red. masses --      3.9905                 1.1017                 1.0847
 Frc consts  --      5.4114                 7.0636                 8.5078
 IR Inten    --     13.8180                 1.9399                96.0240

 - Thermochemistry -
 -------------------
 Temperature   298.150 Kelvin.  Pressure   1.00000 Atm.
 Atom     1 has atomic number  6 and mass  12.00000

 Molecular mass:    70.02795 amu.
 Principal axes and moments of inertia in atomic units:
                           1         2         3
     Eigenvalues --   170.72557 173.81252 344.53809
           X            0.79338   0.60872   0.00000
           Y           -0.60872   0.79338   0.00000
           Z            0.00000   0.00000   1.00000
 This molecule is an asymmetric top.
 Rotational symmetry number  1.
 Rotational temperatures (Kelvin)      0.50733     0.49832     0.25139
 Rotational constants (GHZ):          10.57101    10.38326     5.23815
 Zero-point vibrational energy     123985.2 (Joules/Mol)
                                   29.63316 (Kcal/Mol)
 Warning -- explicit consideration of   1 degrees of freedom as
           vibrations may cause significant error
 Vibrational temperatures:    855.56  1001.23  1075.61  1230.86  1411.53
          (Kelvin)           1463.56  1544.97  1565.86  1651.01  1827.41
                             1900.16  2117.61  2182.77  4746.23  5249.56

 Zero-point correction=                           0.047223 (Hartree/Particle)
 Thermal correction to Energy=                    0.050674
 Thermal correction to Enthalpy=                  0.051618
 Thermal correction to Gibbs Free Energy=         0.021142
 Sum of electronic and zero-point Energies=           -258.130604
 Sum of electronic and thermal Energies=              -258.127154
 Sum of electronic and thermal Enthalpies=            -258.126210
 Sum of electronic and thermal Free Energies=         -258.156686

                     E (Thermal)             CV                S
                      KCal/Mol        Cal/Mol-Kelvin    Cal/Mol-Kelvin
 Total                   31.798             11.193             64.141
 Electronic               0.000              0.000              0.000
 Translational            0.889              2.981             38.656
 Rotational               0.889              2.981             23.840
 Vibrational             30.021              5.232              1.645
 Vibration     1          0.952              1.043              0.459

 Normal termination of Gaussian 09 at Mon Nov 25 19:47:03 2013.
