 Gaussian 09, Revision D.01,
 Gaussian 09:  EM64L-G09RevD.01 24-Apr-2013

 -----------------------------
 #B3PW91/6-31G(2df,p) opt freq
 -----------------------------

 -------------------------------------------------------------------
 1H-tetrazole CH2N4 casno=288948 state=1 config=1 method=16 basis=19
 -------------------------------------------------------------------
 Symbolic Z-matrix:
 Charge =  0 Multiplicity = 1

 SCF Done:  E(RB3PW91) =  -258.169654152     A.U. after   14 cycles
 SCF Done:  E(RB3PW91) =  -258.172358190     A.U. after   11 cycles
 SCF Done:  E(RB3PW91) =  -258.172420602     A.U. after    9 cycles
 SCF Done:  E(RB3PW91) =  -258.172432525     A.U. after    9 cycles
 SCF Done:  E(RB3PW91) =  -258.172436319     A.U. after    8 cycles
 SCF Done:  E(RB3PW91) =  -258.172437224     A.U. after    8 cycles
 Optimization completed.
    -- Stationary point found.
 Normal termination of Gaussian 09 at Mon Dec 16 16:54:37 2013.

 ----------------------------------------------------------------------
 #N Geom=AllCheck Guess=TCheck SCRF=Check GenChk RB3PW91/6-31G(2df,p) F
 req
 ----------------------------------------------------------------------

 Structure from the checkpoint file:  "/tmp/rdj3/g09-9462/Gau-7617.chk"
 -------------------------------------------------------------------
 1H-tetrazole CH2N4 casno=288948 state=1 config=1 method=16 basis=19
 -------------------------------------------------------------------
 Charge =  0 Multiplicity = 1

                         Standard orientation:
 ---------------------------------------------------------------------
 Center     Atomic      Atomic             Coordinates (Angstroms)
 Number     Number       Type             X           Y           Z
 ---------------------------------------------------------------------
      1          6           0        1.063570    0.234110    0.000000
      2          7           0        0.000000    1.049999    0.000000
      3          7           0       -1.114591    0.302922    0.000000
      4          7           0       -0.719766   -0.922038    0.000000
      5          7           0        0.632786   -1.005423    0.000000
      6          1           0        2.090816    0.562019    0.000000
      7          1           0       -0.061239    2.055096    0.000000
 ---------------------------------------------------------------------

 SCF Done:  E(RB3PW91) =  -258.172437224     A.U. after    1 cycles

 The electronic state is 1-A'.
 Alpha  occ. eigenvalues --  -14.43460 -14.39739 -14.38073 -14.35217 -10.26270
 Alpha  occ. eigenvalues --   -1.15360  -0.95503  -0.89962  -0.68584  -0.67117
 Alpha  occ. eigenvalues --   -0.60131  -0.50483  -0.50244  -0.38340  -0.33734
 Alpha  occ. eigenvalues --   -0.31369  -0.30689  -0.29242
 Alpha virt. eigenvalues --   -0.02132   0.01507   0.06614   0.11477   0.18357
 Alpha virt. eigenvalues --    0.20023   0.26936   0.29252   0.38492   0.42904
 Alpha virt. eigenvalues --    0.46717   0.48220   0.51176   0.54460   0.56272

 Mulliken charges:
               1
     1  C    0.087707
     2  N   -0.215914
     3  N   -0.075492
     4  N   -0.086730
     5  N   -0.221408
     6  H    0.194379
     7  H    0.317458
 Sum of Mulliken charges =   0.00000

 Dipole moment (field-independent basis, Debye):
    X=              2.4383    Y=              4.6450    Z=              0.0000  Tot=              5.2461
 Quadrupole moment (field-independent basis, Debye-Ang):
   XX=            -28.2597   YY=            -25.6364   ZZ=            -27.9144
   XY=              1.7528   XZ=              0.0000   YZ=              0.0000

  Exact polarizability:  38.883   0.947  38.059   0.000   0.000  18.455
 Approx polarizability:  67.779   0.385  71.132   0.000   0.000  29.417

                      1                      2                      3
                     A"                     A"                     A"
 Frequencies --    599.7610               697.5278               749.1367
 Red. masses --      1.7117                 2.0183                 8.2988
 Frc consts  --      0.3628                 0.5786                 2.7440
 IR Inten    --     77.9266                 7.2065                 8.1066

                      4                      5                      6
                     A"                     A'                     A'
 Frequencies --    867.1365               985.6377              1020.4786
 Red. masses --      1.3735                 4.2971                 5.5872
 Frc consts  --      0.6085                 2.4596                 3.4281
 IR Inten    --     14.0146                 3.4824                 1.5374

                      7                      8                      9
                     A'                     A'                     A'
 Frequencies --   1080.6798              1091.1334              1157.3393
 Red. masses --      3.5212                 4.3429                 1.9741
 Frc consts  --      2.4229                 3.0464                 1.5579
 IR Inten    --     22.9096                23.8976                12.7301

                     10                     11                     12
                     A'                     A'                     A'
 Frequencies --   1277.0043              1317.3169              1472.4828
 Red. masses --      2.4720                10.8787                 3.3022
 Frc consts  --      2.3751                11.1226                 4.2185
 IR Inten    --      2.3661                13.3489                 8.5092

                     13                     14                     15
                     A'                     A'                     A'
 Frequencies --   1517.8215              3297.8373              3683.4289
 Red. masses --      3.5540                 1.1008                 1.0834
 Frc consts  --      4.8240                 7.0538                 8.6609
 IR Inten    --     16.2284                 1.1535                91.1708

 - Thermochemistry -
 -------------------
 Temperature   298.150 Kelvin.  Pressure   1.00000 Atm.
 Atom     1 has atomic number  6 and mass  12.00000

 Molecular mass:    70.02795 amu.
 Principal axes and moments of inertia in atomic units:
                           1         2         3
     Eigenvalues --   170.18089 173.00848 343.18938
           X            0.81646   0.57740   0.00000
           Y           -0.57740   0.81646   0.00000
           Z            0.00000   0.00000   1.00000
 This molecule is an asymmetric top.
 Rotational symmetry number  1.
 Rotational temperatures (Kelvin)      0.50895     0.50063     0.25238
 Rotational constants (GHZ):          10.60484    10.43152     5.25873
 Zero-point vibrational energy     124499.7 (Joules/Mol)
                                   29.75614 (Kcal/Mol)
 Warning -- explicit consideration of   1 degrees of freedom as
           vibrations may cause significant error
 Vibrational temperatures:    862.92  1003.59  1077.84  1247.61  1418.11
          (Kelvin)           1468.24  1554.86  1569.90  1665.15  1837.32
                             1895.32  2118.57  2183.80  4744.85  5299.63

 Zero-point correction=                           0.047419 (Hartree/Particle)
 Thermal correction to Energy=                    0.050860
 Thermal correction to Enthalpy=                  0.051804
 Thermal correction to Gibbs Free Energy=         0.021347
 Sum of electronic and zero-point Energies=           -258.125018
 Sum of electronic and thermal Energies=              -258.121578
 Sum of electronic and thermal Enthalpies=            -258.120633
 Sum of electronic and thermal Free Energies=         -258.151090

                     E (Thermal)             CV                S
                      KCal/Mol        Cal/Mol-Kelvin    Cal/Mol-Kelvin
 Total                   31.915             11.132             64.102
 Electronic               0.000              0.000              0.000
 Translational            0.889              2.981             38.656
 Rotational               0.889              2.981             23.828
 Vibrational             30.137              5.171              1.617
 Vibration     1          0.958              1.032              0.450

 Optimization completed.
    -- Stationary point found.
 Normal termination of Gaussian 09 at Mon Dec 16 16:55:17 2013.
