 Gaussian 09, Revision D.01,
 Gaussian 09:  EM64L-G09RevD.01 24-Apr-2013

 ----------------------
 #B3PW91/3-21G opt freq
 ----------------------

 ------------------------------------------------------------------
 1H-tetrazole CH2N4 casno=288948 state=1 config=1 method=16 basis=2
 ------------------------------------------------------------------
 Symbolic Z-matrix:
 Charge =  0 Multiplicity = 1

 SCF Done:  E(RB3PW91) =  -256.671247665     A.U. after   14 cycles
 SCF Done:  E(RB3PW91) =  -256.689260389     A.U. after   15 cycles
 SCF Done:  E(RB3PW91) =  -256.690455944     A.U. after   13 cycles
 SCF Done:  E(RB3PW91) =  -256.690784020     A.U. after   12 cycles
 SCF Done:  E(RB3PW91) =  -256.690871129     A.U. after   10 cycles
 SCF Done:  E(RB3PW91) =  -256.690881364     A.U. after    9 cycles
 SCF Done:  E(RB3PW91) =  -256.690885136     A.U. after    9 cycles
 SCF Done:  E(RB3PW91) =  -256.690887235     A.U. after    9 cycles
 Optimization completed.
    -- Stationary point found.
 Normal termination of Gaussian 09 at Mon Dec 16 16:55:28 2013.

 ------------------------------------------------------------------
 #N Geom=AllCheck Guess=TCheck SCRF=Check GenChk RB3PW91/3-21G Freq
 ------------------------------------------------------------------

 Structure from the checkpoint file:  "/tmp/rdj3/g09-9462/Gau-8277.chk"
 ------------------------------------------------------------------
 1H-tetrazole CH2N4 casno=288948 state=1 config=1 method=16 basis=2
 ------------------------------------------------------------------
 Charge =  0 Multiplicity = 1

                         Standard orientation:
 ---------------------------------------------------------------------
 Center     Atomic      Atomic             Coordinates (Angstroms)
 Number     Number       Type             X           Y           Z
 ---------------------------------------------------------------------
      1          6           0        1.077420    0.259410    0.000000
      2          7           0        0.000000    1.081554    0.000000
      3          7           0       -1.167266    0.290529    0.000000
      4          7           0       -0.740676   -0.966535    0.000000
      5          7           0        0.694753   -1.012043    0.000000
      6          1           0        2.097451    0.597803    0.000000
      7          1           0       -0.069648    2.091202    0.000000
 ---------------------------------------------------------------------

 SCF Done:  E(RB3PW91) =  -256.690887235     A.U. after    1 cycles

 The electronic state is 1-A'.
 Alpha  occ. eigenvalues --  -14.36999 -14.34270 -14.32420 -14.29207 -10.22405
 Alpha  occ. eigenvalues --   -1.15600  -0.95605  -0.92293  -0.68697  -0.67793
 Alpha  occ. eigenvalues --   -0.61142  -0.50445  -0.49640  -0.37523  -0.33536
 Alpha  occ. eigenvalues --   -0.32173  -0.30617  -0.29521
 Alpha virt. eigenvalues --   -0.03810   0.00284   0.07997   0.09739   0.16402
 Alpha virt. eigenvalues --    0.19358   0.25096   0.34917   0.38354   0.66691
 Alpha virt. eigenvalues --    0.69104   0.80217   0.82917   0.91712   1.00932

 Mulliken charges:
               1
     1  C    0.322013
     2  N   -0.551207
     3  N   -0.031428
     4  N   -0.079892
     5  N   -0.341407
     6  H    0.296173
     7  H    0.385749
 Sum of Mulliken charges =   0.00000

 Dipole moment (field-independent basis, Debye):
    X=              2.5026    Y=              4.9598    Z=              0.0000  Tot=              5.5554
 Quadrupole moment (field-independent basis, Debye-Ang):
   XX=            -28.9675   YY=            -26.3551   ZZ=            -28.5952
   XY=              2.0025   XZ=              0.0000   YZ=              0.0000

  Exact polarizability:  34.926   1.254  34.462   0.000   0.000  11.359
 Approx polarizability:  66.222  -0.648  73.567   0.000   0.000  14.685

                      1                      2                      3
                     A"                     A"                     A"
 Frequencies --    645.3486               686.0105               691.1141
 Red. masses --      3.6346                 1.6202                 3.0825
 Frc consts  --      0.8919                 0.4492                 0.8675
 IR Inten    --     64.0262                48.9257                53.2400

                      4                      5                      6
                     A'                     A'                     A"
 Frequencies --    794.9271               877.0918               920.2875
 Red. masses --      9.9667                 6.3383                 1.3922
 Frc consts  --      3.7107                 2.8729                 0.6947
 IR Inten    --      9.4593                15.1784                17.1123

                      7                      8                      9
                     A'                     A'                     A'
 Frequencies --    986.4156              1015.0599              1084.9455
 Red. masses --      4.7291                 6.4452                 7.2161
 Frc consts  --      2.7111                 3.9126                 5.0046
 IR Inten    --      8.6595                 8.6163                 2.6526

                     10                     11                     12
                     A'                     A'                     A'
 Frequencies --   1152.2133              1219.8051              1373.2290
 Red. masses --      1.9798                 2.2507                 2.8909
 Frc consts  --      1.5486                 1.9731                 3.2119
 IR Inten    --     13.8509                 6.6316                 4.5792

                     13                     14                     15
                     A'                     A'                     A'
 Frequencies --   1441.1825              3332.4776              3617.2544
 Red. masses --      2.1828                 1.1000                 1.0845
 Frc consts  --      2.6712                 7.1971                 8.3610
 IR Inten    --     41.6263                 2.8274               109.1178

 - Thermochemistry -
 -------------------
 Temperature   298.150 Kelvin.  Pressure   1.00000 Atm.
 Atom     1 has atomic number  6 and mass  12.00000

 Molecular mass:    70.02795 amu.
 Principal axes and moments of inertia in atomic units:
                           1         2         3
     Eigenvalues --   180.11414 185.17150 365.28564
           X            0.99212   0.12527   0.00000
           Y           -0.12527   0.99212   0.00000
           Z            0.00000   0.00000   1.00000
 This molecule is an asymmetric top.
 Rotational symmetry number  1.
 Rotational temperatures (Kelvin)      0.48088     0.46775     0.23711
 Rotational constants (GHZ):          10.01999     9.74632     4.94063
 Zero-point vibrational energy     118653.8 (Joules/Mol)
                                   28.35893 (Kcal/Mol)
 Vibrational temperatures:    928.51   987.01   994.36  1143.72  1261.94
          (Kelvin)           1324.09  1419.23  1460.44  1560.99  1657.78
                             1755.03  1975.77  2073.54  4794.69  5204.42

 Zero-point correction=                           0.045193 (Hartree/Particle)
 Thermal correction to Energy=                    0.048736
 Thermal correction to Enthalpy=                  0.049680
 Thermal correction to Gibbs Free Energy=         0.019006
 Sum of electronic and zero-point Energies=           -256.645694
 Sum of electronic and thermal Energies=              -256.642151
 Sum of electronic and thermal Enthalpies=            -256.641207
 Sum of electronic and thermal Free Energies=         -256.671881

                     E (Thermal)             CV                S
                      KCal/Mol        Cal/Mol-Kelvin    Cal/Mol-Kelvin
 Total                   30.582             11.951             64.558
 Electronic               0.000              0.000              0.000
 Translational            0.889              2.981             38.656
 Rotational               0.889              2.981             24.014
 Vibrational             28.805              5.989              1.888

 Optimization completed.
    -- Stationary point found.
 Normal termination of Gaussian 09 at Mon Dec 16 16:55:31 2013.
