 Gaussian 09, Revision D.01,
 Gaussian 09:  EM64L-G09RevD.01 24-Apr-2013

 ---------------------
 #B3PW91/TZVP opt freq
 ---------------------

 -------------------------------------------------------------------
 1H-tetrazole CH2N4 casno=288948 state=1 config=1 method=16 basis=32
 -------------------------------------------------------------------
 Symbolic Z-matrix:
 Charge =  0 Multiplicity = 1

 SCF Done:  E(RB3PW91) =  -258.234035236     A.U. after   15 cycles
 SCF Done:  E(RB3PW91) =  -258.236264983     A.U. after   12 cycles
 SCF Done:  E(RB3PW91) =  -258.236312189     A.U. after    9 cycles
 SCF Done:  E(RB3PW91) =  -258.236319626     A.U. after    9 cycles
 SCF Done:  E(RB3PW91) =  -258.236324003     A.U. after    8 cycles
 SCF Done:  E(RB3PW91) =  -258.236324725     A.U. after    8 cycles
 Optimization completed.
    -- Stationary point found.
 Normal termination of Gaussian 09 at Mon Dec 16 16:55:51 2013.

 -----------------------------------------------------------------
 #N Geom=AllCheck Guess=TCheck SCRF=Check GenChk RB3PW91/TZVP Freq
 -----------------------------------------------------------------

 Structure from the checkpoint file:  "/tmp/rdj3/g09-9462/Gau-9091.chk"
 -------------------------------------------------------------------
 1H-tetrazole CH2N4 casno=288948 state=1 config=1 method=16 basis=32
 -------------------------------------------------------------------
 Charge =  0 Multiplicity = 1

                         Standard orientation:
 ---------------------------------------------------------------------
 Center     Atomic      Atomic             Coordinates (Angstroms)
 Number     Number       Type             X           Y           Z
 ---------------------------------------------------------------------
      1          6           0        1.063589    0.233560    0.000000
      2          7           0        0.000000    1.049822    0.000000
      3          7           0       -1.114159    0.299611    0.000000
      4          7           0       -0.720336   -0.920462    0.000000
      5          7           0        0.632885   -1.002197    0.000000
      6          1           0        2.091613    0.555861    0.000000
      7          1           0       -0.061876    2.055360    0.000000
 ---------------------------------------------------------------------

 SCF Done:  E(RB3PW91) =  -258.236324725     A.U. after    1 cycles

 The electronic state is 1-A'.
 Alpha  occ. eigenvalues --  -14.43006 -14.39409 -14.37634 -14.34759 -10.26010
 Alpha  occ. eigenvalues --   -1.17038  -0.96757  -0.91468  -0.69732  -0.68398
 Alpha  occ. eigenvalues --   -0.61389  -0.51591  -0.51428  -0.39459  -0.34865
 Alpha  occ. eigenvalues --   -0.32665  -0.31738  -0.30267
 Alpha virt. eigenvalues --   -0.03473   0.00192   0.01870   0.07093   0.12243
 Alpha virt. eigenvalues --    0.13068   0.15792   0.20725   0.22880   0.26766
 Alpha virt. eigenvalues --    0.28705   0.32170   0.34358   0.35230   0.36726

 Mulliken charges:
               1
     1  C   -0.109157
     2  N   -0.086896
     3  N   -0.077654
     4  N   -0.079146
     5  N   -0.062217
     6  H    0.143932
     7  H    0.271137
 Sum of Mulliken charges =   0.00000

 Dipole moment (field-independent basis, Debye):
    X=              2.5687    Y=              4.8844    Z=              0.0000  Tot=              5.5187
 Quadrupole moment (field-independent basis, Debye-Ang):
   XX=            -29.1520   YY=            -26.5974   ZZ=            -28.3803
   XY=              1.8701   XZ=              0.0000   YZ=              0.0000

  Exact polarizability:  41.471   0.697  40.993   0.000   0.000  21.872
 Approx polarizability:  67.911   0.223  71.966   0.000   0.000  31.493

                      1                      2                      3
                     A"                     A"                     A"
 Frequencies --    589.2288               697.5268               741.5465
 Red. masses --      2.1177                 1.7838                 7.1119
 Frc consts  --      0.4332                 0.5114                 2.3042
 IR Inten    --     69.8476                16.0925                10.1481

                      4                      5                      6
                     A"                     A'                     A'
 Frequencies --    848.0960               978.3457              1017.8956
 Red. masses --      1.3251                 4.8026                 6.4696
 Frc consts  --      0.5616                 2.7084                 3.9494
 IR Inten    --     24.8611                 4.8667                 0.3345

                      7                      8                      9
                     A'                     A'                     A'
 Frequencies --   1052.8228              1076.5030              1153.4730
 Red. masses --      4.8115                 3.4089                 1.9866
 Frc consts  --      3.1422                 2.3275                 1.5573
 IR Inten    --     17.4086                30.3335                15.5343

                     10                     11                     12
                     A'                     A'                     A'
 Frequencies --   1274.3530              1307.4959              1465.0485
 Red. masses --      2.2905                10.7428                 3.2147
 Frc consts  --      2.1916                10.8205                 4.0654
 IR Inten    --      3.5604                15.7748                 8.9884

                     13                     14                     15
                     A'                     A'                     A'
 Frequencies --   1518.0321              3290.3359              3666.0884
 Red. masses --      3.2710                 1.1014                 1.0838
 Frc consts  --      4.4411                 7.0256                 8.5822
 IR Inten    --     17.1346                 2.3314                99.3237

 - Thermochemistry -
 -------------------
 Temperature   298.150 Kelvin.  Pressure   1.00000 Atm.
 Atom     1 has atomic number  6 and mass  12.00000

 Molecular mass:    70.02795 amu.
 Principal axes and moments of inertia in atomic units:
                           1         2         3
     Eigenvalues --   169.89990 172.68497 342.58487
           X            0.88454   0.46646   0.00000
           Y           -0.46646   0.88454   0.00000
           Z            0.00000   0.00000   1.00000
 This molecule is an asymmetric top.
 Rotational symmetry number  1.
 Rotational temperatures (Kelvin)      0.50979     0.50157     0.25282
 Rotational constants (GHZ):          10.62238    10.45106     5.26801
 Zero-point vibrational energy     123674.7 (Joules/Mol)
                                   29.55896 (Kcal/Mol)
 Warning -- explicit consideration of   1 degrees of freedom as
           vibrations may cause significant error
 Vibrational temperatures:    847.77  1003.58  1066.92  1220.22  1407.62
          (Kelvin)           1464.52  1514.78  1548.85  1659.59  1833.51
                             1881.19  2107.88  2184.11  4734.05  5274.68

 Zero-point correction=                           0.047105 (Hartree/Particle)
 Thermal correction to Energy=                    0.050566
 Thermal correction to Enthalpy=                  0.051510
 Thermal correction to Gibbs Free Energy=         0.021028
 Sum of electronic and zero-point Energies=           -258.189220
 Sum of electronic and thermal Energies=              -258.185759
 Sum of electronic and thermal Enthalpies=            -258.184815
 Sum of electronic and thermal Free Energies=         -258.215296

                     E (Thermal)             CV                S
                      KCal/Mol        Cal/Mol-Kelvin    Cal/Mol-Kelvin
 Total                   31.730             11.258             64.153
 Electronic               0.000              0.000              0.000
 Translational            0.889              2.981             38.656
 Rotational               0.889              2.981             23.823
 Vibrational             29.953              5.296              1.674
 Vibration     1          0.947              1.055              0.469

 Optimization completed.
    -- Stationary point found.
 Normal termination of Gaussian 09 at Mon Dec 16 16:56:05 2013.
