 Gaussian 09, Revision D.01,
 Gaussian 09:  EM64L-G09RevD.01 24-Apr-2013

 ---------------------------------
 #B3PW91/6-31G** opt=z-matrix freq
 ---------------------------------

 ------------------------------------------------------------------
 1H-tetrazole CH2N4 casno=288948 state=1 config=1 method=16 basis=3
 ------------------------------------------------------------------
 Symbolic Z-matrix:
 Charge =  0 Multiplicity = 1

 SCF Done:  E(RB3PW91) =  -258.156137786     A.U. after   14 cycles
 SCF Done:  E(RB3PW91) =  -258.159441738     A.U. after   12 cycles
 SCF Done:  E(RB3PW91) =  -258.159505945     A.U. after   11 cycles
 SCF Done:  E(RB3PW91) =  -258.159365092     A.U. after   11 cycles
 SCF Done:  E(RB3PW91) =  -258.159517431     A.U. after    9 cycles
 SCF Done:  E(RB3PW91) =  -258.159519142     A.U. after    8 cycles
 SCF Done:  E(RB3PW91) =  -258.159519435     A.U. after    8 cycles
 SCF Done:  E(RB3PW91) =  -258.158892959     A.U. after   11 cycles
 SCF Done:  E(RB3PW91) =  -258.159519655     A.U. after    7 cycles
 SCF Done:  E(RB3PW91) =  -258.159519633     A.U. after    8 cycles
 SCF Done:  E(RB3PW91) =  -258.159519728     A.U. after    6 cycles
 SCF Done:  E(RB3PW91) =  -258.159515119     A.U. after    9 cycles
 SCF Done:  E(RB3PW91) =  -258.159519707     A.U. after    8 cycles
 SCF Done:  E(RB3PW91) =  -258.159519742     A.U. after    5 cycles
 SCF Done:  E(RB3PW91) =  -258.159519709     A.U. after    7 cycles
 Optimization completed.
    -- Stationary point found.
 Normal termination of Gaussian 09 at Mon Nov 25 19:45:05 2013.

 ----------------------------------------------------------------------
 #N Geom=AllCheck Guess=TCheck SCRF=Check GenChk RB3PW91/6-31G(d,p) Fre
 q
 ----------------------------------------------------------------------

 Structure from the checkpoint file:  "/tmp/rdj3/g09-16833/Gau-26566.chk"
 ------------------------------------------------------------------
 1H-tetrazole CH2N4 casno=288948 state=1 config=1 method=16 basis=3
 ------------------------------------------------------------------
 Charge =  0 Multiplicity = 1

                         Standard orientation:
 ---------------------------------------------------------------------
 Center     Atomic      Atomic             Coordinates (Angstroms)
 Number     Number       Type             X           Y           Z
 ---------------------------------------------------------------------
      1          6           0        1.066261    0.234307    0.000000
      2          7           0        0.000000    1.051687    0.000000
      3          7           0       -1.117550    0.303156    0.000000
      4          7           0       -0.720610   -0.923253    0.000000
      5          7           0        0.633367   -1.006510    0.000000
      6          1           0        2.095302    0.559858    0.000000
      7          1           0       -0.059315    2.058742    0.000000
 ---------------------------------------------------------------------

 SCF Done:  E(RB3PW91) =  -258.159519709     A.U. after    1 cycles

 The electronic state is 1-A'.
 Alpha  occ. eigenvalues --  -14.44417 -14.40549 -14.38756 -14.35917 -10.26980
 Alpha  occ. eigenvalues --   -1.15761  -0.95872  -0.90397  -0.68941  -0.67427
 Alpha  occ. eigenvalues --   -0.60439  -0.50598  -0.50595  -0.38537  -0.33956
 Alpha  occ. eigenvalues --   -0.31642  -0.30926  -0.29403
 Alpha virt. eigenvalues --   -0.02473   0.01317   0.06310   0.11172   0.18273
 Alpha virt. eigenvalues --    0.19945   0.28081   0.32485   0.41259   0.51156
 Alpha virt. eigenvalues --    0.52443   0.59362   0.60484   0.64122   0.66631

 Mulliken charges:
               1
     1  C    0.305181
     2  N   -0.366862
     3  N   -0.049135
     4  N   -0.082469
     5  N   -0.316645
     6  H    0.188449
     7  H    0.321481
 Sum of Mulliken charges =   0.00000

 Dipole moment (field-independent basis, Debye):
    X=              2.5086    Y=              4.7713    Z=              0.0000  Tot=              5.3906
 Quadrupole moment (field-independent basis, Debye-Ang):
   XX=            -28.4474   YY=            -25.8823   ZZ=            -28.1018
   XY=              1.7921   XZ=              0.0000   YZ=              0.0000

  Exact polarizability:  37.653   0.997  37.060   0.000   0.000  15.762
 Approx polarizability:  65.691   0.284  69.463   0.000   0.000  24.175

                      1                      2                      3
                     A"                     A"                     A"
 Frequencies --    599.5546               696.1275               744.6836
 Red. masses --      1.8120                 1.9354                 7.9665
 Frc consts  --      0.3838                 0.5526                 2.6029
 IR Inten    --     88.0906                10.7574                 9.0681

                      4                      5                      6
                     A"                     A'                     A'
 Frequencies --    855.2998               984.4169              1018.2331
 Red. masses --      1.3622                 4.3957                 5.5993
 Frc consts  --      0.5871                 2.5098                 3.4204
 IR Inten    --     18.1813                 3.3696                 1.2152

                      7                      8                      9
                     A'                     A'                     A'
 Frequencies --   1076.7083              1093.4642              1158.0318
 Red. masses --      3.4592                 4.6849                 1.9231
 Frc consts  --      2.3628                 3.3004                 1.5195
 IR Inten    --     24.9165                23.1811                13.0075

                     10                     11                     12
                     A'                     A'                     A'
 Frequencies --   1281.4006              1319.3749              1480.0281
 Red. masses --      2.4660                10.6762                 3.3634
 Frc consts  --      2.3857                10.9497                 4.3407
 IR Inten    --      2.1930                16.4148                 8.9713

                     13                     14                     15
                     A'                     A'                     A'
 Frequencies --   1525.0648              3311.5077              3687.8451
 Red. masses --      3.4674                 1.1009                 1.0838
 Frc consts  --      4.7515                 7.1127                 8.6846
 IR Inten    --     17.1475                 1.2895                92.6531

 - Thermochemistry -
 -------------------
 Temperature   298.150 Kelvin.  Pressure   1.00000 Atm.
 Atom     1 has atomic number  6 and mass  12.00000

 Molecular mass:    70.02795 amu.
 Principal axes and moments of inertia in atomic units:
                           1         2         3
     Eigenvalues --   170.72657 173.65659 344.38316
           X            0.84216   0.53922   0.00000
           Y           -0.53922   0.84216   0.00000
           Z            0.00000   0.00000   1.00000
 This molecule is an asymmetric top.
 Rotational symmetry number  1.
 Rotational temperatures (Kelvin)      0.50732     0.49876     0.25150
 Rotational constants (GHZ):          10.57095    10.39259     5.24050
 Zero-point vibrational energy     124601.5 (Joules/Mol)
                                   29.78047 (Kcal/Mol)
 Warning -- explicit consideration of   1 degrees of freedom as
           vibrations may cause significant error
 Vibrational temperatures:    862.62  1001.57  1071.43  1230.58  1416.35
          (Kelvin)           1465.01  1549.14  1573.25  1666.15  1843.65
                             1898.28  2129.43  2194.23  4764.52  5305.98

 Zero-point correction=                           0.047458 (Hartree/Particle)
 Thermal correction to Energy=                    0.050903
 Thermal correction to Enthalpy=                  0.051848
 Thermal correction to Gibbs Free Energy=         0.021379
 Sum of electronic and zero-point Energies=           -258.112062
 Sum of electronic and thermal Energies=              -258.108616
 Sum of electronic and thermal Enthalpies=            -258.107672
 Sum of electronic and thermal Free Energies=         -258.138141

                     E (Thermal)             CV                S
                      KCal/Mol        Cal/Mol-Kelvin    Cal/Mol-Kelvin
 Total                   31.942             11.159             64.126
 Electronic               0.000              0.000              0.000
 Translational            0.889              2.981             38.656
 Rotational               0.889              2.981             23.839
 Vibrational             30.165              5.197              1.632
 Vibration     1          0.958              1.033              0.450

 Normal termination of Gaussian 09 at Mon Nov 25 19:45:14 2013.
