 Gaussian 09, Revision D.01,
 Gaussian 09:  EM64L-G09RevD.01 24-Apr-2013

 ----------------------
 #AM1 opt=z-matrix freq
 ----------------------

 ------------------------------------------------------------------
 1H-tetrazole CH2N4 casno=288948 state=1 config=1 method=17 basis=0
 ------------------------------------------------------------------
 Symbolic Z-matrix:
 Charge =  0 Multiplicity = 1

 SCF Done:  E(RAM1) =  0.192077275443     A.U. after   14 cycles
 SCF Done:  E(RAM1) =  0.175767044321     A.U. after   12 cycles
 SCF Done:  E(RAM1) =  0.174692921198     A.U. after   12 cycles
 SCF Done:  E(RAM1) =  0.175778237150     A.U. after   12 cycles
 SCF Done:  E(RAM1) =  0.174684310281     A.U. after   10 cycles
 SCF Done:  E(RAM1) =  0.174633244038     A.U. after   11 cycles
 SCF Done:  E(RAM1) =  0.175531291016     A.U. after   12 cycles
 SCF Done:  E(RAM1) =  0.174626881830     A.U. after    9 cycles
 SCF Done:  E(RAM1) =  0.174622315530     A.U. after   11 cycles
 SCF Done:  E(RAM1) =  0.174621931359     A.U. after    9 cycles
 SCF Done:  E(RAM1) =  0.174875759489     A.U. after   12 cycles
 SCF Done:  E(RAM1) =  0.174622007088     A.U. after    9 cycles
 SCF Done:  E(RAM1) =  0.174621873659     A.U. after    8 cycles
 SCF Done:  E(RAM1) =  0.174892182257     A.U. after   12 cycles
 SCF Done:  E(RAM1) =  0.174621891894     A.U. after    9 cycles
 SCF Done:  E(RAM1) =  0.174621864939     A.U. after    7 cycles
 SCF Done:  E(RAM1) =  0.174882247115     A.U. after   11 cycles
 SCF Done:  E(RAM1) =  0.174621864973     A.U. after    9 cycles
 Optimization completed.
    -- Stationary point found.
 Normal termination of Gaussian 09 at Mon Nov 25 19:54:46 2013.

 -------------------------------------------------------------
 #N Geom=AllCheck Guess=TCheck SCRF=Check GenChk RAM1/ZDO Freq
 -------------------------------------------------------------

 Structure from the checkpoint file:  "/tmp/rdj3/g09-16833/Gau-5631.chk"
 ------------------------------------------------------------------
 1H-tetrazole CH2N4 casno=288948 state=1 config=1 method=17 basis=0
 ------------------------------------------------------------------
 Charge =  0 Multiplicity = 1

                         Standard orientation:
 ---------------------------------------------------------------------
 Center     Atomic      Atomic             Coordinates (Angstroms)
 Number     Number       Type             X           Y           Z
 ---------------------------------------------------------------------
      1          6           0        1.109529    0.216325    0.000000
      2          7           0        0.000000    1.076549    0.000000
      3          7           0       -1.108855    0.317528    0.000000
      4          7           0       -0.737558   -0.909158    0.000000
      5          7           0        0.591810   -1.041292    0.000000
      6          1           0        2.156896    0.527975    0.000000
      7          1           0       -0.031846    2.068687    0.000000
 ---------------------------------------------------------------------

 SCF Done:  E(RAM1) =  0.174621864973     A.U. after    2 cycles

 The electronic state is 1-A'.
 Alpha  occ. eigenvalues --   -1.59205  -1.26714  -1.21479  -0.91879  -0.88479
 Alpha  occ. eigenvalues --   -0.73181  -0.62820  -0.62599  -0.52669  -0.47882
 Alpha  occ. eigenvalues --   -0.45569  -0.44581  -0.41942
 Alpha virt. eigenvalues --   -0.00313   0.03471   0.03871   0.10342   0.12773
 Alpha virt. eigenvalues --    0.14962   0.15265   0.18547   0.26812

 Mulliken charges:
               1
     1  C   -0.107952
     2  N   -0.223519
     3  N   -0.021587
     4  N   -0.046560
     5  N   -0.108658
     6  H    0.223498
     7  H    0.284778
 Sum of Mulliken charges =   0.00000

 Dipole moment (field-independent basis, Debye):
    X=              2.5632    Y=              4.4486    Z=              0.0000  Tot=              5.1342
 N-N= 1.093991175297D+02 E-N=-1.811222050073D+02  KE=-1.694678326122D+01
 Symmetry A'   KE=-1.446545202677D+01
 Symmetry A"   KE=-2.481331234446D+00
  Exact polarizability:  37.349   1.026  38.282   0.000   0.000   8.020
 Approx polarizability:  35.942  -0.077  42.064   0.000   0.000   5.304
 Calling FoFJK, ICntrl=    100127 FMM=F ISym2X=1 I1Cent= 0 IOpClX= 0 NMat=1 NMatS=1 NMatT=0.
 Full mass-weighted force constant matrix:
 Low frequencies ---   -2.1358   -0.1624   -0.0004    0.2144    0.9695    2.1901
 Low frequencies ---  552.7144  608.7963  735.9515
 Diagonal vibrational polarizability:

                      1                      2                      3
                     A"                     A"                     A"
 Frequencies --    552.7144               608.7963               735.9515
 Red. masses --      1.2855                 2.7130                 7.0154
 Frc consts  --      0.2314                 0.5924                 2.2387
 IR Inten    --    154.2817                 2.9048                12.6511

                      4                      5                      6
                     A"                     A'                     A'
 Frequencies --    898.3379               910.4386               917.1821
 Red. masses --      1.5677                 7.6981                 7.5221
 Frc consts  --      0.7454                 3.7595                 3.7282
 IR Inten    --     54.3753                 0.2152                 5.4900

                      7                      8                      9
                     A'                     A'                     A'
 Frequencies --   1109.8409              1242.2637              1316.0542
 Red. masses --      1.1928                 1.4166                 9.7819
 Frc consts  --      0.8656                 1.2880                 9.9820
 IR Inten    --     21.7687                 6.8784                25.4244

                     10                     11                     12
                     A'                     A'                     A'
 Frequencies --   1465.7217              1479.4863              1564.1900
 Red. masses --      5.1994                 6.6370                 8.0903
 Frc consts  --      6.5813                 8.5594                11.6626
 IR Inten    --      1.8474                14.1151                18.9660

                     13                     14                     15
                     A'                     A'                     A'
 Frequencies --   1673.8925              3203.0480              3472.9182
 Red. masses --      7.9386                 1.0963                 1.0755
 Frc consts  --     13.1054                 6.6268                 7.6431
 IR Inten    --      0.6499               153.7698               293.6978

 - Thermochemistry -
 -------------------
 Temperature   298.150 Kelvin.  Pressure   1.00000 Atm.
 Atom     1 has atomic number  6 and mass  12.00000

 Molecular mass:    70.02795 amu.
 Principal axes and moments of inertia in atomic units:
                           1         2         3
     Eigenvalues --   174.87724 177.22047 352.09772
           X           -0.50528   0.86295   0.00000
           Y            0.86295   0.50528   0.00000
           Z            0.00000   0.00000   1.00000
 This molecule is an asymmetric top.
 Rotational symmetry number  1.
 Rotational temperatures (Kelvin)      0.49528     0.48873     0.24599
 Rotational constants (GHZ):          10.32005    10.18359     5.12568
 Zero-point vibrational energy     126510.1 (Joules/Mol)
                                   30.23664 (Kcal/Mol)
 Warning -- explicit consideration of   2 degrees of freedom as
           vibrations may cause significant error
 Vibrational temperatures:    795.23   875.92  1058.87  1292.51  1309.92
          (Kelvin)           1319.62  1596.81  1787.34  1893.51  2108.84
                             2128.65  2250.52  2408.36  4608.47  4996.75

 Zero-point correction=                           0.048185 (Hartree/Particle)
 Thermal correction to Energy=                    0.051682
 Thermal correction to Enthalpy=                  0.052627
 Thermal correction to Gibbs Free Energy=         0.022044
 Sum of electronic and zero-point Energies=              0.222807
 Sum of electronic and thermal Energies=                 0.226304
 Sum of electronic and thermal Enthalpies=               0.227248
 Sum of electronic and thermal Free Energies=            0.196666

                     E (Thermal)             CV                S
                      KCal/Mol        Cal/Mol-Kelvin    Cal/Mol-Kelvin
 Total                   32.431             11.192             64.366
 Electronic               0.000              0.000              0.000
 Translational            0.889              2.981             38.656
 Rotational               0.889              2.981             23.905
 Vibrational             30.654              5.230              1.806
 Vibration     1          0.908              1.134              0.539
 Vibration     2          0.968              1.013              0.435

 Optimization completed.
    -- Stationary point found.
 Normal termination of Gaussian 09 at Mon Nov 25 19:54:48 2013.
