 Gaussian 09, Revision D.01,
 Gaussian 09:  EM64L-G09RevD.01 24-Apr-2013

 ----------------------
 #PM3 opt=z-matrix freq
 ----------------------

 ------------------------------------------------------------------
 1H-tetrazole CH2N4 casno=288948 state=1 config=1 method=18 basis=0
 ------------------------------------------------------------------
 Symbolic Z-matrix:
 Charge =  0 Multiplicity = 1

 SCF Done:  E(RPM3) =  0.151645034185     A.U. after   14 cycles
 SCF Done:  E(RPM3) =  0.138197108603     A.U. after   13 cycles
 SCF Done:  E(RPM3) =  0.137449062896     A.U. after   13 cycles
 SCF Done:  E(RPM3) =  0.137588020747     A.U. after   13 cycles
 SCF Done:  E(RPM3) =  0.137420580758     A.U. after   10 cycles
 SCF Done:  E(RPM3) =  0.137390496388     A.U. after   11 cycles
 SCF Done:  E(RPM3) =  0.137386016884     A.U. after   11 cycles
 SCF Done:  E(RPM3) =  0.137598523187     A.U. after   13 cycles
 SCF Done:  E(RPM3) =  0.137385300456     A.U. after    9 cycles
 Optimization completed.
    -- Stationary point found.
 Normal termination of Gaussian 09 at Mon Nov 25 19:54:54 2013.

 -------------------------------------------------------------
 #P Geom=AllCheck Guess=TCheck SCRF=Check GenChk RPM3/ZDO Freq
 -------------------------------------------------------------

 Structure from the checkpoint file:  "/tmp/rdj3/g09-16833/Gau-7217.chk"
 ------------------------------------------------------------------
 1H-tetrazole CH2N4 casno=288948 state=1 config=1 method=18 basis=0
 ------------------------------------------------------------------
 Charge =  0 Multiplicity = 1

                         Standard orientation:
 ---------------------------------------------------------------------
 Center     Atomic      Atomic             Coordinates (Angstroms)
 Number     Number       Type             X           Y           Z
 ---------------------------------------------------------------------
      1          6           0        1.114140    0.245541    0.000000
      2          7           0        0.000000    1.065818    0.000000
      3          7           0       -1.116286    0.288074    0.000000
      4          7           0       -0.736166   -0.929702    0.000000
      5          7           0        0.595358   -1.002301    0.000000
      6          1           0        2.172939    0.520119    0.000000
      7          1           0       -0.058126    2.053410    0.000000
 ---------------------------------------------------------------------

 SCF Done:  E(RPM3) =  0.137385300455     A.U. after    2 cycles

 The electronic state is 1-A'.
 Alpha  occ. eigenvalues --   -1.39518  -1.04030  -1.00868  -0.80863  -0.76198
 Alpha  occ. eigenvalues --   -0.70351  -0.61929  -0.58610  -0.48546  -0.42873
 Alpha  occ. eigenvalues --   -0.42613  -0.41826  -0.40750
 Alpha virt. eigenvalues --   -0.01934   0.01246   0.01834   0.08121   0.12210
 Alpha virt. eigenvalues --    0.13515   0.15342   0.16818   0.24786

 Mulliken charges:
               1
     1  C   -0.224846
     2  N    0.245188
     3  N   -0.190741
     4  N    0.003925
     5  N   -0.133159
     6  H    0.183023
     7  H    0.116611
 Sum of Mulliken charges =   0.00000

 Dipole moment (field-independent basis, Debye):
    X=              2.5183    Y=              4.7906    Z=              0.0000  Tot=              5.4122
 N-N= 1.002487217877D+02 E-N=-1.652298299027D+02  KE=-1.681333200781D+01
 Symmetry A'   KE=-1.388921119003D+01
 Symmetry A"   KE=-2.924120817778D+00
  Exact polarizability:  38.187   1.061  39.993   0.000   0.000  11.242
 Approx polarizability:  35.610   0.457  40.309   0.000   0.000   6.445
 Leave Link  601 at Mon Nov 25 19:54:56 2013, MaxMem=   436000000 cpu:         0.2
 (Enter /usr/local/gaussian/g09.d01.em64t.legacy.linda/g09/l701.exe)
 Compute integral second derivatives.
 ... and contract with generalized density number  0.
 Leave Link  701 at Mon Nov 25 19:54:56 2013, MaxMem=   436000000 cpu:         0.5

                      1                      2                      3
                     A"                     A"                     A"
 Frequencies --    467.7737               564.3997               636.3156
 Red. masses --      2.4021                 1.4669                 7.0786
 Frc consts  --      0.3097                 0.2753                 1.6887
 IR Inten    --     40.1700                17.6583                13.7973

                      4                      5                      6
                     A'                     A"                     A'
 Frequencies --    843.9362               850.9290               871.9136
 Red. masses --      8.9736                 1.4541                 7.8028
 Frc consts  --      3.7656                 0.6204                 3.4950
 IR Inten    --     20.4010                33.0434                 0.7391

                      7                      8                      9
                     A'                     A'                     A'
 Frequencies --   1010.7957              1055.2433              1121.1711
 Red. masses --      1.7906                 1.4736                 3.1395
 Frc consts  --      1.0779                 0.9668                 2.3252
 IR Inten    --     31.4063                 0.4999                23.9778

                     10                     11                     12
                     A'                     A'                     A'
 Frequencies --   1289.3633              1438.5800              1507.0819
 Red. masses --      2.9534                 6.8061                 8.0681
 Frc consts  --      2.8928                 8.2988                10.7968
 IR Inten    --     13.0738                20.1799                27.4693

                     13                     14                     15
                     A'                     A'                     A'
 Frequencies --   1611.1582              3068.2332              3433.2647
 Red. masses --      8.8040                 1.1076                 1.0844
 Frc consts  --     13.4650                 6.1433                 7.5313
 IR Inten    --     29.2563               110.2858                53.3351

 - Thermochemistry -
 -------------------
 Temperature   298.150 Kelvin.  Pressure   1.00000 Atm.
 Atom     1 has atomic number  6 and mass  12.00000

 Molecular mass:    70.02795 amu.
 Principal axes and moments of inertia in atomic units:
                           1         2         3
     Eigenvalues --   170.94690 178.97669 349.92358
           X            0.87612  -0.48209   0.00000
           Y            0.48209   0.87612   0.00000
           Z            0.00000   0.00000   1.00000
 This molecule is an asymmetric top.
 Rotational symmetry number  1.
 Rotational temperatures (Kelvin)      0.50667     0.48394     0.24752
 Rotational constants (GHZ):          10.55732    10.08367     5.15753
 Zero-point vibrational energy     118251.8 (Joules/Mol)
                                   28.26286 (Kcal/Mol)
 Warning -- explicit consideration of   2 degrees of freedom as
           vibrations may cause significant error
 Vibrational temperatures:    673.02   812.04   915.52  1214.23  1224.30
          (Kelvin)           1254.49  1454.31  1518.26  1613.11  1855.10
                             2069.79  2168.35  2318.09  4414.50  4939.70

 Zero-point correction=                           0.045040 (Hartree/Particle)
 Thermal correction to Energy=                    0.048749
 Thermal correction to Enthalpy=                  0.049693
 Thermal correction to Gibbs Free Energy=         0.018820
 Sum of electronic and zero-point Energies=              0.182425
 Sum of electronic and thermal Energies=                 0.186134
 Sum of electronic and thermal Enthalpies=               0.187078
 Sum of electronic and thermal Free Energies=            0.156206

                     E (Thermal)             CV                S
                      KCal/Mol        Cal/Mol-Kelvin    Cal/Mol-Kelvin
 Total                   30.590             12.357             64.976
 Electronic               0.000              0.000              0.000
 Translational            0.889              2.981             38.656
 Rotational               0.889              2.981             23.886
 Vibrational             28.813              6.395              2.434
 Vibration     1          0.825              1.322              0.744
 Vibration     2          0.920              1.108              0.515

 Optimization completed.
    -- Stationary point found.
 Normal termination of Gaussian 09 at Mon Nov 25 19:54:56 2013.
