 Gaussian 09, Revision D.01,
 Gaussian 09:  EM64L-G09RevD.01 24-Apr-2013

 ---------------------------------
 #HF/aug-cc-pVDZ opt=z-matrix freq
 ---------------------------------

 ------------------------------------------------------------------
 1H-tetrazole CH2N4 casno=288948 state=1 config=1 method=1 basis=17
 ------------------------------------------------------------------
 Symbolic Z-matrix:
 Charge =  0 Multiplicity = 1

 SCF Done:  E(RHF) =  -256.797933873     A.U. after   15 cycles
 SCF Done:  E(RHF) =  -256.797986991     A.U. after   10 cycles
 SCF Done:  E(RHF) =  -256.797984387     A.U. after   10 cycles
 SCF Done:  E(RHF) =  -256.797988528     A.U. after    9 cycles
 SCF Done:  E(RHF) =  -256.797988711     A.U. after    9 cycles
 SCF Done:  E(RHF) =  -256.797986123     A.U. after   10 cycles
 SCF Done:  E(RHF) =  -256.797990344     A.U. after    9 cycles
 SCF Done:  E(RHF) =  -256.797881208     A.U. after   11 cycles
 SCF Done:  E(RHF) =  -256.797990554     A.U. after    7 cycles
 SCF Done:  E(RHF) =  -256.797980123     A.U. after   10 cycles
 SCF Done:  E(RHF) =  -256.797980647     A.U. after   10 cycles
 SCF Done:  E(RHF) =  -256.797990555     A.U. after    3 cycles
 SCF Done:  E(RHF) =  -256.797989946     A.U. after    9 cycles
 SCF Done:  E(RHF) =  -256.797990556     A.U. after    5 cycles
 Optimization completed.
    -- Stationary point found.
 Normal termination of Gaussian 09 at Mon Nov 25 16:59:16 2013.

 --------------------------------------------------------------------
 #N Geom=AllCheck Guess=TCheck SCRF=Check GenChk RHF/Aug-CC-pVDZ Freq
 --------------------------------------------------------------------

 Structure from the checkpoint file:  "/tmp/rdj3/g09-32362/Gau-8524.chk"
 ------------------------------------------------------------------
 1H-tetrazole CH2N4 casno=288948 state=1 config=1 method=1 basis=17
 ------------------------------------------------------------------
 Charge =  0 Multiplicity = 1

                         Standard orientation:
 ---------------------------------------------------------------------
 Center     Atomic      Atomic             Coordinates (Angstroms)
 Number     Number       Type             X           Y           Z
 ---------------------------------------------------------------------
      1          6           0        1.053949    0.225400    0.000000
      2          7           0        0.000000    1.040406    0.000000
      3          7           0       -1.095546    0.293511    0.000000
      4          7           0       -0.718378   -0.902228    0.000000
      5          7           0        0.621704   -0.992974    0.000000
      6          1           0        2.079282    0.542890    0.000000
      7          1           0       -0.057437    2.033711    0.000000
 ---------------------------------------------------------------------

 SCF Done:  E(RHF) =  -256.797990556     A.U. after    1 cycles

 The electronic state is 1-A'.
 Alpha  occ. eigenvalues --  -15.68636 -15.66652 -15.64916 -15.60741 -11.34090
 Alpha  occ. eigenvalues --   -1.52469  -1.27070  -1.21346  -0.91756  -0.90027
 Alpha  occ. eigenvalues --   -0.81129  -0.69152  -0.68559  -0.57621  -0.47982
 Alpha  occ. eigenvalues --   -0.46947  -0.46077  -0.42664
 Alpha virt. eigenvalues --    0.01942   0.04176   0.08134   0.08632   0.10886
 Alpha virt. eigenvalues --    0.12757   0.13575   0.14285   0.15628   0.16754
 Alpha virt. eigenvalues --    0.16977   0.17905   0.19849   0.20012   0.21561

 Mulliken charges:
               1
     1  C    1.141617
     2  N   -0.177080
     3  N   -0.154724
     4  N   -0.250397
     5  N   -0.440327
     6  H   -0.112517
     7  H   -0.006573
 Sum of Mulliken charges =   0.00000

 Dipole moment (field-independent basis, Debye):
    X=              2.6363    Y=              4.8891    Z=              0.0000  Tot=              5.5546
 Quadrupole moment (field-independent basis, Debye-Ang):
   XX=            -28.9002   YY=            -26.7657   ZZ=            -29.0561
   XY=              2.0297   XZ=              0.0000   YZ=              0.0000

  Exact polarizability:  40.896   0.311  41.217   0.000   0.000  24.865
 Approx polarizability:  40.368   0.277  42.387   0.000   0.000  26.363

                      1                      2                      3
                     A"                     A"                     A"
 Frequencies --    609.7758               744.1300               811.2014
 Red. masses --      1.5569                 2.1586                 9.8558
 Frc consts  --      0.3411                 0.7042                 3.8212
 IR Inten    --    106.8068                 4.3489                 6.7267
 Raman Activ --      0.0876                 0.1254                 0.0602

                      4                      5                      6
                     A"                     A'                     A'
 Frequencies --   1000.5879              1083.7140              1106.9712
 Red. masses --      1.3892                 4.3011                 7.2795
 Frc consts  --      0.8195                 2.9762                 5.2556
 IR Inten    --     12.9504                 1.6335                 1.7124
 Raman Activ --      0.4027                 1.1109                 1.4069

                      7                      8                      9
                     A'                     A'                     A'
 Frequencies --   1172.5538              1193.1985              1248.2071
 Red. masses --      3.3779                 2.5215                 2.6291
 Frc consts  --      2.7363                 2.1151                 2.4134
 IR Inten    --     25.0001                32.3137                19.3059
 Raman Activ --      6.6615                 1.1849                 4.7123

                     10                     11                     12
                     A'                     A'                     A'
 Frequencies --   1413.3589              1535.5551              1613.9569
 Red. masses --      2.8695                 5.9477                 3.3566
 Frc consts  --      3.3772                 8.2629                 5.1514
 IR Inten    --      1.5065                29.7997                11.4069
 Raman Activ --     15.6387                27.7955                 8.1540

                     13                     14                     15
                     A'                     A'                     A'
 Frequencies --   1701.4811              3451.0538              3906.0375
 Red. masses --      3.8431                 1.1049                 1.0856
 Frc consts  --      6.5552                 7.7532                 9.7586
 IR Inten    --     22.8390                 0.7417               138.9739
 Raman Activ --      1.7762                63.9695                68.3067

 - Thermochemistry -
 -------------------
 Temperature   298.150 Kelvin.  Pressure   1.00000 Atm.
 Atom     1 has atomic number  6 and mass  12.00000

 Molecular mass:    70.02795 amu.
 Principal axes and moments of inertia in atomic units:
                           1         2         3
     Eigenvalues --   165.82046 168.53662 334.35708
           X            0.92007   0.39177   0.00000
           Y           -0.39177   0.92007   0.00000
           Z            0.00000   0.00000   1.00000
 This molecule is an asymmetric top.
 Rotational symmetry number  1.
 Rotational temperatures (Kelvin)      0.52233     0.51392     0.25905
 Rotational constants (GHZ):          10.88371    10.70830     5.39765
 Zero-point vibrational energy     135128.9 (Joules/Mol)
                                   32.29657 (Kcal/Mol)
 Warning -- explicit consideration of   1 degrees of freedom as
           vibrations may cause significant error
 Vibrational temperatures:    877.33  1070.64  1167.14  1439.62  1559.22
          (Kelvin)           1592.68  1687.04  1716.74  1795.89  2033.51
                             2209.32  2322.12  2448.05  4965.29  5619.91

 Zero-point correction=                           0.051468 (Hartree/Particle)
 Thermal correction to Energy=                    0.054780
 Thermal correction to Enthalpy=                  0.055724
 Thermal correction to Gibbs Free Energy=         0.025469
 Sum of electronic and zero-point Energies=           -256.746523
 Sum of electronic and thermal Energies=              -256.743210
 Sum of electronic and thermal Enthalpies=            -256.742266
 Sum of electronic and thermal Free Energies=         -256.772522

                     E (Thermal)             CV                S
                      KCal/Mol        Cal/Mol-Kelvin    Cal/Mol-Kelvin
 Total                   34.375             10.159             63.679
 Electronic               0.000              0.000              0.000
 Translational            0.889              2.981             38.656
 Rotational               0.889              2.981             23.751
 Vibrational             32.598              4.198              1.272
 Vibration     1          0.969              1.011              0.433

 Optimization completed.
    -- Stationary point found.
 Normal termination of Gaussian 09 at Mon Nov 25 16:59:36 2013.
