 Gaussian 09, Revision D.01,
 Gaussian 09:  EM64L-G09RevD.01 24-Apr-2013

 ----------------------
 #HF/CEP-121G* opt freq
 ----------------------

 ------------------------------------------------------------------
 1H-tetrazole CH2N4 casno=288948 state=1 config=1 method=1 basis=14
 ------------------------------------------------------------------
 Symbolic Z-matrix:
 Charge =  0 Multiplicity = 1

 SCF Done:  E(RHF) =  -45.3090772573     A.U. after   15 cycles
 SCF Done:  E(RHF) =  -45.3094775656     A.U. after   11 cycles
 SCF Done:  E(RHF) =  -45.3094800863     A.U. after   10 cycles
 SCF Done:  E(RHF) =  -45.3094857455     A.U. after    9 cycles
 Optimization completed.
    -- Stationary point found.
 Normal termination of Gaussian 09 at Tue Dec 24 12:44:38 2013.

 --------------------------------------------------------------------
 #N Geom=AllCheck Guess=TCheck SCRF=Check GenChk RHF/CEP-121G(d) Freq
 --------------------------------------------------------------------

 Structure from the checkpoint file:  "/tmp/rdj3/g09-28568/Gau-29137.chk"
 ------------------------------------------------------------------
 1H-tetrazole CH2N4 casno=288948 state=1 config=1 method=1 basis=14
 ------------------------------------------------------------------
 Charge =  0 Multiplicity = 1

                         Standard orientation:
 ---------------------------------------------------------------------
 Center     Atomic      Atomic             Coordinates (Angstroms)
 Number     Number       Type             X           Y           Z
 ---------------------------------------------------------------------
      1          6           0        1.058292    0.227309    0.000000
      2          7           0        0.000000    1.045651    0.000000
      3          7           0       -1.102866    0.292554    0.000000
      4          7           0       -0.720079   -0.907786    0.000000
      5          7           0        0.627519   -0.994526    0.000000
      6          1           0        2.080682    0.545203    0.000000
      7          1           0       -0.062449    2.039697    0.000000
 ---------------------------------------------------------------------

 SCF Done:  E(RHF) =  -45.3094857455     A.U. after    1 cycles

 The electronic state is 1-A'.
 Alpha  occ. eigenvalues --   -1.52585  -1.27315  -1.21747  -0.91905  -0.89901
 Alpha  occ. eigenvalues --   -0.81061  -0.68732  -0.68548  -0.57327  -0.47597
 Alpha  occ. eigenvalues --   -0.46647  -0.45886  -0.42610
 Alpha virt. eigenvalues --    0.11947   0.13673   0.16232   0.18427   0.26230
 Alpha virt. eigenvalues --    0.27909   0.35493   0.42485   0.43915   0.50306
 Alpha virt. eigenvalues --    0.53128   0.57558   0.60521   0.62009   0.64373

 Mulliken charges:
               1
     1  C   -0.184203
     2  N   -0.228807
     3  N   -0.063100
     4  N   -0.071572
     5  N   -0.097872
     6  H    0.227889
     7  H    0.417665
 Sum of Mulliken charges =   0.00000

 Dipole moment (field-independent basis, Debye):
    X=              2.6704    Y=              5.0559    Z=              0.0000  Tot=              5.7178
 Quadrupole moment (field-independent basis, Debye-Ang):
   XX=            -28.8276   YY=            -26.5979   ZZ=            -28.6491
   XY=              2.0897   XZ=              0.0000   YZ=              0.0000

  Exact polarizability:  37.151   0.603  37.263   0.000   0.000  19.467
 Approx polarizability:  37.140   0.321  39.305   0.000   0.000  20.831

                      1                      2                      3
                     A"                     A"                     A"
 Frequencies --    601.5525               741.8176               799.8220
 Red. masses --      1.6821                 2.0299                 8.8778
 Frc consts  --      0.3586                 0.6581                 3.3461
 IR Inten    --    117.3226                 8.4184                 9.8654
 Raman Activ --      0.3834                 0.1808                 0.0969

                      4                      5                      6
                     A"                     A'                     A'
 Frequencies --    994.3300              1078.1166              1100.7918
 Red. masses --      1.3735                 4.7836                 7.3784
 Frc consts  --      0.8001                 3.2759                 5.2677
 IR Inten    --     15.0119                 1.8304                 1.5753
 Raman Activ --      0.0880                 1.8828                 2.4524

                      7                      8                      9
                     A'                     A'                     A'
 Frequencies --   1169.4387              1189.4565              1247.7302
 Red. masses --      3.4502                 2.6878                 2.4484
 Frc consts  --      2.7800                 2.2405                 2.2458
 IR Inten    --     27.0939                31.7805                22.9161
 Raman Activ --      5.2727                 2.5606                 7.1899

                     10                     11                     12
                     A'                     A'                     A'
 Frequencies --   1409.3975              1524.1950              1599.7154
 Red. masses --      2.9692                 5.6115                 3.2017
 Frc consts  --      3.4750                 7.6809                 4.8274
 IR Inten    --      2.3899                36.2425                13.2329
 Raman Activ --     14.4459                20.4865                 9.3257

                     13                     14                     15
                     A'                     A'                     A'
 Frequencies --   1694.8552              3466.6237              3913.2708
 Red. masses --      3.6358                 1.1042                 1.0853
 Frc consts  --      6.1534                 7.8183                 9.7924
 IR Inten    --     24.3182                 0.1805               123.1283
 Raman Activ --      2.1663                64.1049                66.3276

 - Thermochemistry -
 -------------------
 Temperature   298.150 Kelvin.  Pressure   1.00000 Atm.
 Atom     1 has atomic number  6 and mass  12.00000

 Molecular mass:    70.02795 amu.
 Principal axes and moments of inertia in atomic units:
                           1         2         3
     Eigenvalues --   167.17971 170.19277 337.37248
           X            0.93733   0.34843   0.00000
           Y           -0.34843   0.93733   0.00000
           Z            0.00000   0.00000   1.00000
 This molecule is an asymmetric top.
 Rotational symmetry number  1.
 Rotational temperatures (Kelvin)      0.51809     0.50892     0.25673
 Rotational constants (GHZ):          10.79522    10.60410     5.34940
 Zero-point vibrational energy     134766.0 (Joules/Mol)
                                   32.20984 (Kcal/Mol)
 Warning -- explicit consideration of   1 degrees of freedom as
           vibrations may cause significant error
 Vibrational temperatures:    865.50  1067.31  1150.76  1430.62  1551.17
          (Kelvin)           1583.79  1682.56  1711.36  1795.20  2027.81
                             2192.97  2301.63  2438.52  4987.69  5630.32

 Zero-point correction=                           0.051330 (Hartree/Particle)
 Thermal correction to Energy=                    0.054654
 Thermal correction to Enthalpy=                  0.055598
 Thermal correction to Gibbs Free Energy=         0.025314
 Sum of electronic and zero-point Energies=            -45.258156
 Sum of electronic and thermal Energies=               -45.254832
 Sum of electronic and thermal Enthalpies=             -45.253888
 Sum of electronic and thermal Free Energies=          -45.284172

                     E (Thermal)             CV                S
                      KCal/Mol        Cal/Mol-Kelvin    Cal/Mol-Kelvin
 Total                   34.296             10.229             63.739
 Electronic               0.000              0.000              0.000
 Translational            0.889              2.981             38.656
 Rotational               0.889              2.981             23.777
 Vibrational             32.518              4.267              1.305
 Vibration     1          0.960              1.029              0.447

 Optimization completed.
    -- Stationary point found.
 Normal termination of Gaussian 09 at Tue Dec 24 12:44:44 2013.
