 Gaussian 09, Revision D.01,
 Gaussian 09:  EM64L-G09RevD.01 24-Apr-2013

 -----------------------------
 #HF/CEP-31G opt=z-matrix freq
 -----------------------------

 ------------------------------------------------------------------
 1H-tetrazole CH2N4 casno=288948 state=1 config=1 method=1 basis=11
 ------------------------------------------------------------------
 Symbolic Z-matrix:
 Charge =  0 Multiplicity = 1

 SCF Done:  E(RHF) =  -45.1354850266     A.U. after   14 cycles
 SCF Done:  E(RHF) =  -45.1434385860     A.U. after   15 cycles
 SCF Done:  E(RHF) =  -45.1432900989     A.U. after   13 cycles
 SCF Done:  E(RHF) =  -45.1433890659     A.U. after   12 cycles
 SCF Done:  E(RHF) =  -45.1434400389     A.U. after   11 cycles
 SCF Done:  E(RHF) =  -45.1435556238     A.U. after   12 cycles
 SCF Done:  E(RHF) =  -45.1433737173     A.U. after   13 cycles
 SCF Done:  E(RHF) =  -45.1436797269     A.U. after   13 cycles
 SCF Done:  E(RHF) =  -45.1435401527     A.U. after   12 cycles
 SCF Done:  E(RHF) =  -45.1436850439     A.U. after   11 cycles
 SCF Done:  E(RHF) =  -45.1436653003     A.U. after   12 cycles
 SCF Done:  E(RHF) =  -45.1436857573     A.U. after   11 cycles
 SCF Done:  E(RHF) =  -45.1436863704     A.U. after   10 cycles
 SCF Done:  E(RHF) =  -45.1436863983     A.U. after    9 cycles
 SCF Done:  E(RHF) =  -45.1436727226     A.U. after   11 cycles
 SCF Done:  E(RHF) =  -45.1436822341     A.U. after   12 cycles
 SCF Done:  E(RHF) =  -45.1436864127     A.U. after    7 cycles
 Optimization completed.
    -- Stationary point found.
 Normal termination of Gaussian 09 at Mon Nov 25 16:56:01 2013.

 ----------------------------------------------------------------
 #N Geom=AllCheck Guess=TCheck SCRF=Check GenChk RHF/CEP-31G Freq
 ----------------------------------------------------------------

 Structure from the checkpoint file:  "/tmp/rdj3/g09-32362/Gau-32418.chk"
 ------------------------------------------------------------------
 1H-tetrazole CH2N4 casno=288948 state=1 config=1 method=1 basis=11
 ------------------------------------------------------------------
 Charge =  0 Multiplicity = 1

                         Standard orientation:
 ---------------------------------------------------------------------
 Center     Atomic      Atomic             Coordinates (Angstroms)
 Number     Number       Type             X           Y           Z
 ---------------------------------------------------------------------
      1          6           0        1.079433    0.242584    0.000000
      2          7           0        0.000000    1.065234    0.000000
      3          7           0       -1.131078    0.294772    0.000000
      4          7           0       -0.733394   -0.934935    0.000000
      5          7           0        0.647675   -1.005983    0.000000
      6          1           0        2.100919    0.552431    0.000000
      7          1           0       -0.059941    2.058450    0.000000
 ---------------------------------------------------------------------

 SCF Done:  E(RHF) =  -45.1436864127     A.U. after    1 cycles

 The electronic state is 1-A'.
 Alpha  occ. eigenvalues --   -1.54533  -1.28996  -1.24219  -0.92994  -0.90552
 Alpha  occ. eigenvalues --   -0.81854  -0.68975  -0.68973  -0.57221  -0.47943
 Alpha  occ. eigenvalues --   -0.47488  -0.47023  -0.43780
 Alpha virt. eigenvalues --    0.10583   0.15693   0.20230   0.24981   0.27490
 Alpha virt. eigenvalues --    0.31776   0.36415   0.40847   0.43926   0.49298
 Alpha virt. eigenvalues --    0.52919   0.66137   0.66221   0.69621   0.71560

 Mulliken charges:
               1
     1  C   -0.325340
     2  N   -0.299603
     3  N    0.003938
     4  N   -0.106036
     5  N    0.022960
     6  H    0.271345
     7  H    0.432736
 Sum of Mulliken charges =   0.00000

 Dipole moment (field-independent basis, Debye):
    X=              3.0691    Y=              5.5699    Z=              0.0000  Tot=              6.3595
 Quadrupole moment (field-independent basis, Debye-Ang):
   XX=            -30.3321   YY=            -28.4500   ZZ=            -29.1376
   XY=              2.4092   XZ=              0.0000   YZ=              0.0000

  Exact polarizability:  36.175   0.461  36.878   0.000   0.000  15.576
 Approx polarizability:  36.456   0.014  39.631   0.000   0.000  13.584

                      1                      2                      3
                     A"                     A"                     A"
 Frequencies --    713.4621               775.0086               787.1469
 Red. masses --      4.3386                11.2570                 1.1200
 Frc consts  --      1.3012                 3.9837                 0.4089
 IR Inten    --     25.7825                 0.5011               184.5734
 Raman Activ --      0.3580                 0.3615                 0.0154

                      4                      5                      6
                     A"                     A'                     A'
 Frequencies --   1000.5975              1048.2843              1091.8498
 Red. masses --      1.3896                 6.1738                 7.7936
 Frc consts  --      0.8197                 3.9973                 5.4741
 IR Inten    --     11.7456                 1.0907                 7.8344
 Raman Activ --      1.2731                 3.0980                 5.1753

                      7                      8                      9
                     A'                     A'                     A'
 Frequencies --   1119.4708              1156.3586              1230.8364
 Red. masses --      3.6015                 5.4820                 1.9652
 Frc consts  --      2.6593                 4.3189                 1.7541
 IR Inten    --     34.3530                22.0795                18.5120
 Raman Activ --      3.2297                11.2519                 4.4854

                     10                     11                     12
                     A'                     A'                     A'
 Frequencies --   1366.9258              1454.1223              1534.5374
 Red. masses --      2.7276                 6.9339                 2.9561
 Frc consts  --      3.0027                 8.6383                 4.1014
 IR Inten    --      1.6075                24.9765                 6.2511
 Raman Activ --     14.6529                19.7750                12.6483

                     13                     14                     15
                     A'                     A'                     A'
 Frequencies --   1653.8929              3538.0982              3974.9643
 Red. masses --      2.4195                 1.1055                 1.0870
 Frc consts  --      3.8993                 8.1533                10.1194
 IR Inten    --     38.0301                 1.0417               170.5526
 Raman Activ --      3.7618                65.2325                65.5388

 - Thermochemistry -
 -------------------
 Temperature   298.150 Kelvin.  Pressure   1.00000 Atm.
 Atom     1 has atomic number  6 and mass  12.00000

 Molecular mass:    70.02795 amu.
 Principal axes and moments of inertia in atomic units:
                           1         2         3
     Eigenvalues --   173.90938 177.48912 351.39850
           X            0.99692   0.07847   0.00000
           Y           -0.07847   0.99692   0.00000
           Z            0.00000   0.00000   1.00000
 This molecule is an asymmetric top.
 Rotational symmetry number  1.
 Rotational temperatures (Kelvin)      0.49804     0.48800     0.24648
 Rotational constants (GHZ):          10.37748    10.16818     5.13588
 Zero-point vibrational energy     134254.2 (Joules/Mol)
                                   32.08753 (Kcal/Mol)
 Vibrational temperatures:   1026.51  1115.06  1132.53  1439.63  1508.25
          (Kelvin)           1570.93  1610.67  1663.74  1770.90  1966.70
                             2092.16  2207.85  2379.58  5090.53  5719.08

 Zero-point correction=                           0.051135 (Hartree/Particle)
 Thermal correction to Energy=                    0.054415
 Thermal correction to Enthalpy=                  0.055359
 Thermal correction to Gibbs Free Energy=         0.025083
 Sum of electronic and zero-point Energies=            -45.092552
 Sum of electronic and thermal Energies=               -45.089271
 Sum of electronic and thermal Enthalpies=             -45.088327
 Sum of electronic and thermal Free Energies=          -45.118603

                     E (Thermal)             CV                S
                      KCal/Mol        Cal/Mol-Kelvin    Cal/Mol-Kelvin
 Total                   34.146             10.122             63.721
 Electronic               0.000              0.000              0.000
 Translational            0.889              2.981             38.656
 Rotational               0.889              2.981             23.899
 Vibrational             32.368              4.160              1.167

 Optimization completed.
    -- Stationary point found.
 Normal termination of Gaussian 09 at Mon Nov 25 16:56:04 2013.
