 Gaussian 09, Revision D.01,
 Gaussian 09:  EM64L-G09RevD.01 24-Apr-2013

 ---------------------
 #HF/CEP-31G* opt freq
 ---------------------

 ------------------------------------------------------------------
 1H-tetrazole CH2N4 casno=288948 state=1 config=1 method=1 basis=12
 ------------------------------------------------------------------
 Symbolic Z-matrix:
 Charge =  0 Multiplicity = 1

 SCF Done:  E(RHF) =  -45.3005635911     A.U. after   15 cycles
 SCF Done:  E(RHF) =  -45.3014780764     A.U. after   12 cycles
 SCF Done:  E(RHF) =  -45.3014929324     A.U. after   11 cycles
 SCF Done:  E(RHF) =  -45.3015055464     A.U. after   11 cycles
 Optimization completed.
    -- Stationary point found.
 Normal termination of Gaussian 09 at Tue Dec 24 12:44:26 2013.

 -------------------------------------------------------------------
 #N Geom=AllCheck Guess=TCheck SCRF=Check GenChk RHF/CEP-31G(d) Freq
 -------------------------------------------------------------------

 Structure from the checkpoint file:  "/tmp/rdj3/g09-28568/Gau-28624.chk"
 ------------------------------------------------------------------
 1H-tetrazole CH2N4 casno=288948 state=1 config=1 method=1 basis=12
 ------------------------------------------------------------------
 Charge =  0 Multiplicity = 1

                         Standard orientation:
 ---------------------------------------------------------------------
 Center     Atomic      Atomic             Coordinates (Angstroms)
 Number     Number       Type             X           Y           Z
 ---------------------------------------------------------------------
      1          6           0        1.059825    0.228567    0.000000
      2          7           0        0.000000    1.048375    0.000000
      3          7           0       -1.104944    0.294924    0.000000
      4          7           0       -0.720187   -0.911601    0.000000
      5          7           0        0.627925   -0.998073    0.000000
      6          1           0        2.086150    0.547052    0.000000
      7          1           0       -0.064655    2.046167    0.000000
 ---------------------------------------------------------------------

 SCF Done:  E(RHF) =  -45.3015055464     A.U. after    1 cycles

 The electronic state is 1-A'.
 Alpha  occ. eigenvalues --   -1.52109  -1.27186  -1.21365  -0.91732  -0.89644
 Alpha  occ. eigenvalues --   -0.80725  -0.68450  -0.68240  -0.57108  -0.47501
 Alpha  occ. eigenvalues --   -0.46543  -0.45793  -0.42313
 Alpha virt. eigenvalues --    0.13553   0.18347   0.21138   0.26243   0.28049
 Alpha virt. eigenvalues --    0.34413   0.36898   0.43054   0.44864   0.49592
 Alpha virt. eigenvalues --    0.55440   0.64273   0.66345   0.68225   0.69335

 Mulliken charges:
               1
     1  C   -0.490668
     2  N   -0.099166
     3  N   -0.056617
     4  N   -0.086103
     5  N    0.050669
     6  H    0.253662
     7  H    0.428223
 Sum of Mulliken charges =   0.00000

 Dipole moment (field-independent basis, Debye):
    X=              2.7031    Y=              5.1009    Z=              0.0000  Tot=              5.7729
 Quadrupole moment (field-independent basis, Debye-Ang):
   XX=            -28.9068   YY=            -26.6462   ZZ=            -28.5976
   XY=              2.0703   XZ=              0.0000   YZ=              0.0000

  Exact polarizability:  36.289   0.349  36.784   0.000   0.000  17.207
 Approx polarizability:  36.739   0.104  39.023   0.000   0.000  18.204

                      1                      2                      3
                     A"                     A"                     A"
 Frequencies --    625.4194               739.0584               794.9011
 Red. masses --      1.7284                 1.9762                 8.8461
 Frc consts  --      0.3983                 0.6360                 3.2933
 IR Inten    --    123.3538                10.6218                10.1497
 Raman Activ --      0.2043                 0.1537                 0.1853

                      4                      5                      6
                     A"                     A'                     A'
 Frequencies --    998.2617              1074.6402              1097.2822
 Red. masses --      1.3699                 4.7977                 6.3993
 Frc consts  --      0.8043                 3.2644                 4.5396
 IR Inten    --     14.7089                 2.2943                 2.4278
 Raman Activ --      1.2307                 2.2938                 2.9199

                      7                      8                      9
                     A'                     A'                     A'
 Frequencies --   1182.7989              1209.8885              1252.0938
 Red. masses --      2.9079                 2.7903                 2.4285
 Frc consts  --      2.3969                 2.4065                 2.2432
 IR Inten    --     30.2225                30.5388                16.9283
 Raman Activ --      4.2472                 3.3159                 8.1783

                     10                     11                     12
                     A'                     A'                     A'
 Frequencies --   1420.5590              1546.4349              1607.6486
 Red. masses --      3.0408                 4.7817                 3.7367
 Frc consts  --      3.6154                 6.7375                 5.6901
 IR Inten    --      3.1893                43.0404                11.6771
 Raman Activ --     12.0367                17.5191                11.3167

                     13                     14                     15
                     A'                     A'                     A'
 Frequencies --   1709.5721              3495.7216              3930.6925
 Red. masses --      4.2920                 1.1040                 1.0857
 Frc consts  --      7.3908                 7.9485                 9.8833
 IR Inten    --     22.3321                 0.6987               143.7235
 Raman Activ --      1.9160                62.4297                68.1544

 - Thermochemistry -
 -------------------
 Temperature   298.150 Kelvin.  Pressure   1.00000 Atm.
 Atom     1 has atomic number  6 and mass  12.00000

 Molecular mass:    70.02795 amu.
 Principal axes and moments of inertia in atomic units:
                           1         2         3
     Eigenvalues --   168.19712 170.83963 339.03674
           X            0.89442   0.44722   0.00000
           Y           -0.44722   0.89442   0.00000
           Z            0.00000   0.00000   1.00000
 This molecule is an asymmetric top.
 Rotational symmetry number  1.
 Rotational temperatures (Kelvin)      0.51495     0.50699     0.25547
 Rotational constants (GHZ):          10.72992    10.56395     5.32314
 Zero-point vibrational energy     135686.3 (Joules/Mol)
                                   32.42980 (Kcal/Mol)
 Vibrational temperatures:    899.84  1063.34  1143.68  1436.27  1546.17
          (Kelvin)           1578.74  1701.78  1740.76  1801.48  2043.86
                             2224.97  2313.04  2459.69  5029.56  5655.38

 Zero-point correction=                           0.051680 (Hartree/Particle)
 Thermal correction to Energy=                    0.054991
 Thermal correction to Enthalpy=                  0.055935
 Thermal correction to Gibbs Free Energy=         0.025663
 Sum of electronic and zero-point Energies=            -45.249825
 Sum of electronic and thermal Energies=               -45.246515
 Sum of electronic and thermal Enthalpies=             -45.245571
 Sum of electronic and thermal Free Energies=          -45.275843

                     E (Thermal)             CV                S
                      KCal/Mol        Cal/Mol-Kelvin    Cal/Mol-Kelvin
 Total                   34.507             10.156             63.713
 Electronic               0.000              0.000              0.000
 Translational            0.889              2.981             38.656
 Rotational               0.889              2.981             23.792
 Vibrational             32.730              4.195              1.265

 Optimization completed.
    -- Stationary point found.
 Normal termination of Gaussian 09 at Tue Dec 24 12:44:31 2013.
