 Gaussian 09, Revision D.01,
 Gaussian 09:  EM64L-G09RevD.01 24-Apr-2013

 -------------------------
 #HF/SDD opt=z-matrix freq
 -------------------------

 ------------------------------------------------------------------
 1H-tetrazole CH2N4 casno=288948 state=1 config=1 method=1 basis=16
 ------------------------------------------------------------------
 Symbolic Z-matrix:
 Charge =  0 Multiplicity = 1

 SCF Done:  E(RHF) =  -256.634652194     A.U. after   15 cycles
 SCF Done:  E(RHF) =  -256.639185066     A.U. after   13 cycles
 SCF Done:  E(RHF) =  -256.639229509     A.U. after   12 cycles
 SCF Done:  E(RHF) =  -256.639087568     A.U. after   12 cycles
 SCF Done:  E(RHF) =  -256.639537992     A.U. after   11 cycles
 SCF Done:  E(RHF) =  -256.639209499     A.U. after   12 cycles
 SCF Done:  E(RHF) =  -256.639541477     A.U. after   10 cycles
 SCF Done:  E(RHF) =  -256.639405945     A.U. after   11 cycles
 SCF Done:  E(RHF) =  -256.639542432     A.U. after    9 cycles
 Optimization completed.
    -- Stationary point found.
 Normal termination of Gaussian 09 at Mon Nov 25 16:58:08 2013.

 ------------------------------------------------------------
 #N Geom=AllCheck Guess=TCheck SCRF=Check GenChk RHF/SDD Freq
 ------------------------------------------------------------

 Structure from the checkpoint file:  "/tmp/rdj3/g09-32362/Gau-7626.chk"
 ------------------------------------------------------------------
 1H-tetrazole CH2N4 casno=288948 state=1 config=1 method=1 basis=16
 ------------------------------------------------------------------
 Charge =  0 Multiplicity = 1

                         Standard orientation:
 ---------------------------------------------------------------------
 Center     Atomic      Atomic             Coordinates (Angstroms)
 Number     Number       Type             X           Y           Z
 ---------------------------------------------------------------------
      1          6           0        1.074336    0.242356    0.000000
      2          7           0        0.000000    1.058016    0.000000
      3          7           0       -1.122790    0.290226    0.000000
      4          7           0       -0.730767   -0.929855    0.000000
      5          7           0        0.644252   -0.997239    0.000000
      6          1           0        2.090174    0.551374    0.000000
      7          1           0       -0.071049    2.046442    0.000000
 ---------------------------------------------------------------------

 SCF Done:  E(RHF) =  -256.639542432     A.U. after    1 cycles

 The electronic state is 1-A'.
 Alpha  occ. eigenvalues --  -15.69196 -15.68975 -15.66781 -15.62725 -11.36683
 Alpha  occ. eigenvalues --   -1.54396  -1.28246  -1.23720  -0.92729  -0.90579
 Alpha  occ. eigenvalues --   -0.82261  -0.69481  -0.69245  -0.57616  -0.48146
 Alpha  occ. eigenvalues --   -0.47650  -0.47271  -0.44034
 Alpha virt. eigenvalues --    0.10918   0.16057   0.20586   0.25772   0.28238
 Alpha virt. eigenvalues --    0.32089   0.40455   0.44499   0.46732   0.53577
 Alpha virt. eigenvalues --    0.54728   0.64634   0.67253   0.67271   0.70810

 Mulliken charges:
               1
     1  C    0.022132
     2  N   -0.502214
     3  N    0.009927
     4  N   -0.058837
     5  N   -0.186028
     6  H    0.285453
     7  H    0.429566
 Sum of Mulliken charges =   0.00000

 Dipole moment (field-independent basis, Debye):
    X=              2.9330    Y=              5.4624    Z=              0.0000  Tot=              6.2000
 Quadrupole moment (field-independent basis, Debye-Ang):
   XX=            -30.2980   YY=            -28.4033   ZZ=            -29.2356
   XY=              2.3647   XZ=              0.0000   YZ=              0.0000

  Exact polarizability:  35.986   0.691  36.386   0.000   0.000  14.713
 Approx polarizability:  35.883   0.277  38.942   0.000   0.000  13.157

                      1                      2                      3
                     A"                     A"                     A"
 Frequencies --    727.2211               788.7059               812.9689
 Red. masses --      3.7942                10.8156                 1.1411
 Frc consts  --      1.1822                 3.9640                 0.4444
 IR Inten    --     12.5691                 5.5222               198.1797
 Raman Activ --      0.7203                 0.3857                 0.2412

                      4                      5                      6
                     A"                     A'                     A'
 Frequencies --   1011.3127              1043.7752              1102.3336
 Red. masses --      1.4302                 6.9943                 6.0148
 Frc consts  --      0.8618                 4.4896                 4.3063
 IR Inten    --      7.1459                 2.9216                25.1637
 Raman Activ --      0.6976                 3.6916                 4.5872

                      7                      8                      9
                     A'                     A'                     A'
 Frequencies --   1115.4779              1158.2796              1241.8552
 Red. masses --      4.8539                 5.2659                 2.0044
 Frc consts  --      3.5585                 4.1624                 1.8212
 IR Inten    --     16.4768                19.2366                20.6582
 Raman Activ --      4.0560                 8.4244                 3.8401

                     10                     11                     12
                     A'                     A'                     A'
 Frequencies --   1379.8885              1453.5141              1544.8860
 Red. masses --      2.4839                 7.2464                 2.7780
 Frc consts  --      2.7866                 9.0201                 3.9064
 IR Inten    --      2.0131                24.6991                 7.4939
 Raman Activ --     12.8989                22.3461                13.4208

                     13                     14                     15
                     A'                     A'                     A'
 Frequencies --   1666.1416              3538.3474              3971.3056
 Red. masses --      2.3960                 1.1064                 1.0867
 Frc consts  --      3.9188                 8.1617                10.0976
 IR Inten    --     47.4159                 2.6487               177.0750
 Raman Activ --      3.0553                63.4527                60.9581

 - Thermochemistry -
 -------------------
 Temperature   298.150 Kelvin.  Pressure   1.00000 Atm.
 Atom     1 has atomic number  6 and mass  12.00000

 Molecular mass:    70.02795 amu.
 Principal axes and moments of inertia in atomic units:
                           1         2         3
     Eigenvalues --   171.49815 175.49804 346.99619
           X            0.99982  -0.01876   0.00000
           Y            0.01876   0.99982   0.00000
           Z            0.00000   0.00000   1.00000
 This molecule is an asymmetric top.
 Rotational symmetry number  1.
 Rotational temperatures (Kelvin)      0.50504     0.49353     0.24961
 Rotational constants (GHZ):          10.52339    10.28354     5.20104
 Zero-point vibrational energy     134914.9 (Joules/Mol)
                                   32.24544 (Kcal/Mol)
 Vibrational temperatures:   1046.31  1134.77  1169.68  1455.05  1501.76
          (Kelvin)           1586.01  1604.92  1666.50  1786.75  1985.35
                             2091.28  2222.74  2397.20  5090.89  5713.82

 Zero-point correction=                           0.051386 (Hartree/Particle)
 Thermal correction to Energy=                    0.054647
 Thermal correction to Enthalpy=                  0.055591
 Thermal correction to Gibbs Free Energy=         0.025359
 Sum of electronic and zero-point Energies=           -256.588156
 Sum of electronic and thermal Energies=              -256.584896
 Sum of electronic and thermal Enthalpies=            -256.583952
 Sum of electronic and thermal Free Energies=         -256.614183

                     E (Thermal)             CV                S
                      KCal/Mol        Cal/Mol-Kelvin    Cal/Mol-Kelvin
 Total                   34.291             10.000             63.628
 Electronic               0.000              0.000              0.000
 Translational            0.889              2.981             38.656
 Rotational               0.889              2.981             23.861
 Vibrational             32.514              4.038              1.110

 Optimization completed.
    -- Stationary point found.
 Normal termination of Gaussian 09 at Mon Nov 25 16:58:10 2013.
