 Gaussian 09, Revision D.01,
 Gaussian 09:  EM64L-G09RevD.01 24-Apr-2013

 ---------------------------------
 #HF/aug-cc-pVTZ opt=z-matrix freq
 ---------------------------------

 ------------------------------------------------------------------
 1H-tetrazole CH2N4 casno=288948 state=1 config=1 method=1 basis=18
 ------------------------------------------------------------------
 Symbolic Z-matrix:
 Charge =  0 Multiplicity = 1

 SCF Done:  E(RHF) =  -256.852218671     A.U. after   14 cycles
 SCF Done:  E(RHF) =  -256.852317725     A.U. after   10 cycles
 SCF Done:  E(RHF) =  -256.852284365     A.U. after   10 cycles
 SCF Done:  E(RHF) =  -256.852317969     A.U. after    9 cycles
 SCF Done:  E(RHF) =  -256.852319276     A.U. after    8 cycles
 SCF Done:  E(RHF) =  -256.852315575     A.U. after    8 cycles
 SCF Done:  E(RHF) =  -256.852319862     A.U. after    8 cycles
 SCF Done:  E(RHF) =  -256.852293706     A.U. after   10 cycles
 SCF Done:  E(RHF) =  -256.852319967     A.U. after    6 cycles
 SCF Done:  E(RHF) =  -256.852305408     A.U. after    9 cycles
 SCF Done:  E(RHF) =  -256.852319977     A.U. after    6 cycles
 Optimization completed.
    -- Stationary point found.
 Normal termination of Gaussian 09 at Mon Nov 25 17:20:49 2013.

 --------------------------------------------------------------------
 #N Geom=AllCheck Guess=TCheck SCRF=Check GenChk RHF/Aug-CC-pVTZ Freq
 --------------------------------------------------------------------

 Structure from the checkpoint file:  "/tmp/rdj3/g09-32362/Gau-9809.chk"
 ------------------------------------------------------------------
 1H-tetrazole CH2N4 casno=288948 state=1 config=1 method=1 basis=18
 ------------------------------------------------------------------
 Charge =  0 Multiplicity = 1

                         Standard orientation:
 ---------------------------------------------------------------------
 Center     Atomic      Atomic             Coordinates (Angstroms)
 Number     Number       Type             X           Y           Z
 ---------------------------------------------------------------------
      1          6           0        1.049697    0.224762    0.000000
      2          7           0        0.000000    1.036696    0.000000
      3          7           0       -1.091913    0.290081    0.000000
      4          7           0       -0.716496   -0.898593    0.000000
      5          7           0        0.621399   -0.987504    0.000000
      6          1           0        2.068212    0.541474    0.000000
      7          1           0       -0.057323    2.025192    0.000000
 ---------------------------------------------------------------------

 SCF Done:  E(RHF) =  -256.852319977     A.U. after    1 cycles

 The electronic state is 1-A'.
 Alpha  occ. eigenvalues --  -15.67814 -15.65764 -15.63988 -15.59713 -11.33010
 Alpha  occ. eigenvalues --   -1.52466  -1.26862  -1.21283  -0.91640  -0.89984
 Alpha  occ. eigenvalues --   -0.81271  -0.69479  -0.68641  -0.57648  -0.47843
 Alpha  occ. eigenvalues --   -0.46779  -0.46206  -0.42853
 Alpha virt. eigenvalues --    0.01492   0.03480   0.06763   0.07172   0.09376
 Alpha virt. eigenvalues --    0.10574   0.11540   0.12474   0.12905   0.13671
 Alpha virt. eigenvalues --    0.14035   0.15037   0.16481   0.17547   0.17602

 Mulliken charges:
               1
     1  C   -0.280248
     2  N    0.169011
     3  N   -0.239844
     4  N   -0.165435
     5  N   -0.283889
     6  H    0.638953
     7  H    0.161452
 Sum of Mulliken charges =   0.00000

 Dipole moment (field-independent basis, Debye):
    X=              2.5959    Y=              4.8585    Z=              0.0000  Tot=              5.5085
 Quadrupole moment (field-independent basis, Debye-Ang):
   XX=            -28.9036   YY=            -26.7580   ZZ=            -28.7297
   XY=              2.0173   XZ=              0.0000   YZ=              0.0000

  Exact polarizability:  40.758   0.313  41.096   0.000   0.000  24.925
 Approx polarizability:  40.045   0.295  42.045   0.000   0.000  26.238

                      1                      2                      3
                     A"                     A"                     A"
 Frequencies --    625.4363               749.2391               817.5456
 Red. masses --      1.5509                 2.1560                 9.6233
 Frc consts  --      0.3574                 0.7131                 3.7896
 IR Inten    --    107.1010                 4.2975                 7.0343
 Raman Activ --      0.0844                 0.1244                 0.0477

                      4                      5                      6
                     A"                     A'                     A'
 Frequencies --   1017.8094              1083.9558              1106.9843
 Red. masses --      1.3993                 5.0271                 8.1548
 Frc consts  --      0.8541                 3.4801                 5.8877
 IR Inten    --     10.9102                 1.5434                 1.8835
 Raman Activ --      0.3614                 1.3547                 1.3286

                      7                      8                      9
                     A'                     A'                     A'
 Frequencies --   1162.8626              1187.4508              1249.7730
 Red. masses --      3.6513                 2.6734                 2.4234
 Frc consts  --      2.9091                 2.2210                 2.2301
 IR Inten    --     23.0667                30.0960                22.8026
 Raman Activ --      6.1681                 1.4276                 3.6266

                     10                     11                     12
                     A'                     A'                     A'
 Frequencies --   1415.6751              1528.7769              1613.3516
 Red. masses --      2.6892                 5.8124                 3.1600
 Frc consts  --      3.1754                 8.0038                 4.8462
 IR Inten    --      1.3666                29.3778                11.6854
 Raman Activ --     15.9063                28.0724                 8.0980

                     13                     14                     15
                     A'                     A'                     A'
 Frequencies --   1703.4436              3435.0680              3904.6170
 Red. masses --      3.6407                 1.1046                 1.0852
 Frc consts  --      6.2244                 7.6795                 9.7477
 IR Inten    --     24.8395                 0.5199               136.4017
 Raman Activ --      1.8521                62.7722                67.9347

 - Thermochemistry -
 -------------------
 Temperature   298.150 Kelvin.  Pressure   1.00000 Atm.
 Atom     1 has atomic number  6 and mass  12.00000

 Molecular mass:    70.02795 amu.
 Principal axes and moments of inertia in atomic units:
                           1         2         3
     Eigenvalues --   164.45178 167.31325 331.76502
           X            0.94773   0.31909   0.00000
           Y           -0.31909   0.94773   0.00000
           Z            0.00000   0.00000   1.00000
 This molecule is an asymmetric top.
 Rotational symmetry number  1.
 Rotational temperatures (Kelvin)      0.52668     0.51767     0.26107
 Rotational constants (GHZ):          10.97429    10.78660     5.43982
 Zero-point vibrational energy     135189.9 (Joules/Mol)
                                   32.31117 (Kcal/Mol)
 Vibrational temperatures:    899.86  1077.99  1176.26  1464.40  1559.57
          (Kelvin)           1592.70  1673.10  1708.47  1798.14  2036.84
                             2199.57  2321.25  2450.87  4942.29  5617.87

 Zero-point correction=                           0.051491 (Hartree/Particle)
 Thermal correction to Energy=                    0.054790
 Thermal correction to Enthalpy=                  0.055735
 Thermal correction to Gibbs Free Energy=         0.025508
 Sum of electronic and zero-point Energies=           -256.800829
 Sum of electronic and thermal Energies=              -256.797529
 Sum of electronic and thermal Enthalpies=            -256.796585
 Sum of electronic and thermal Free Energies=         -256.826812

                     E (Thermal)             CV                S
                      KCal/Mol        Cal/Mol-Kelvin    Cal/Mol-Kelvin
 Total                   34.382             10.099             63.617
 Electronic               0.000              0.000              0.000
 Translational            0.889              2.981             38.656
 Rotational               0.889              2.981             23.727
 Vibrational             32.604              4.137              1.233

 Optimization completed.
    -- Stationary point found.
 Normal termination of Gaussian 09 at Mon Nov 25 17:29:55 2013.
