 Gaussian 09, Revision D.01,
 Gaussian 09:  EM64L-G09RevD.01 24-Apr-2013

 ----------------------------
 #HF/6-31G* opt=z-matrix freq
 ----------------------------

 -----------------------------------------------------------------
 1H-tetrazole CH2N4 casno=288948 state=1 config=1 method=1 basis=1
 -----------------------------------------------------------------
 Symbolic Z-matrix:
 Charge =  0 Multiplicity = 1

 SCF Done:  E(RHF) =  -256.754076285     A.U. after   15 cycles
 SCF Done:  E(RHF) =  -256.754076275     A.U. after    7 cycles
 SCF Done:  E(RHF) =  -256.754076287     A.U. after    7 cycles
 SCF Done:  E(RHF) =  -256.754076293     A.U. after    6 cycles
 SCF Done:  E(RHF) =  -256.754076221     A.U. after    8 cycles
 SCF Done:  E(RHF) =  -256.754076290     A.U. after    7 cycles
 SCF Done:  E(RHF) =  -256.754076293     A.U. after    6 cycles
 SCF Done:  E(RHF) =  -256.754076224     A.U. after    8 cycles
 SCF Done:  E(RHF) =  -256.754076164     A.U. after    9 cycles
 SCF Done:  E(RHF) =  -256.754076267     A.U. after    6 cycles
 Optimization completed.
    -- Stationary point found.
 Normal termination of Gaussian 09 at Mon Nov 25 17:32:43 2013.

 -----------------------------------------------------------------
 #N Geom=AllCheck Guess=TCheck SCRF=Check GenChk RHF/6-31G(d) Freq
 -----------------------------------------------------------------

 Structure from the checkpoint file:  "/tmp/rdj3/g09-32362/Gau-12351.chk"
 -----------------------------------------------------------------
 1H-tetrazole CH2N4 casno=288948 state=1 config=1 method=1 basis=1
 -----------------------------------------------------------------
 Charge =  0 Multiplicity = 1

                         Standard orientation:
 ---------------------------------------------------------------------
 Center     Atomic      Atomic             Coordinates (Angstroms)
 Number     Number       Type             X           Y           Z
 ---------------------------------------------------------------------
      1          6           0        1.052748    0.225744    0.000000
      2          7           0        0.000000    1.038861    0.000000
      3          7           0       -1.095401    0.291379    0.000000
      4          7           0       -0.716404   -0.901970    0.000000
      5          7           0        0.622194   -0.989507    0.000000
      6          1           0        2.072262    0.543137    0.000000
      7          1           0       -0.061470    2.031050    0.000000
 ---------------------------------------------------------------------

 SCF Done:  E(RHF) =  -256.754076267     A.U. after    1 cycles

 The electronic state is 1-A'.
 Alpha  occ. eigenvalues --  -15.68425 -15.66114 -15.64138 -15.59954 -11.33391
 Alpha  occ. eigenvalues --   -1.52163  -1.26658  -1.21016  -0.91423  -0.89659
 Alpha  occ. eigenvalues --   -0.81012  -0.68902  -0.68409  -0.57259  -0.47485
 Alpha  occ. eigenvalues --   -0.46289  -0.45783  -0.42411
 Alpha virt. eigenvalues --    0.15148   0.20118   0.20248   0.25701   0.37660
 Alpha virt. eigenvalues --    0.39679   0.48770   0.51617   0.67282   0.73609
 Alpha virt. eigenvalues --    0.74374   0.82416   0.83553   0.90504   0.91521

 Mulliken charges:
               1
     1  C    0.303780
     2  N   -0.539856
     3  N   -0.020999
     4  N   -0.067346
     5  N   -0.360345
     6  H    0.255804
     7  H    0.428963
 Sum of Mulliken charges =   0.00000

 Dipole moment (field-independent basis, Debye):
    X=              2.6725    Y=              4.9693    Z=              0.0000  Tot=              5.6424
 Quadrupole moment (field-independent basis, Debye-Ang):
   XX=            -28.6598   YY=            -26.5322   ZZ=            -28.5221
   XY=              2.0003   XZ=              0.0000   YZ=              0.0000

  Exact polarizability:  34.269   0.714  34.629   0.000   0.000  15.169
 Approx polarizability:  35.234   0.273  37.691   0.000   0.000  16.765

                      1                      2                      3
                     A"                     A"                     A"
 Frequencies --    623.0222               752.5054               815.3491
 Red. masses --      1.6199                 2.0952                 9.3432
 Frc consts  --      0.3705                 0.6990                 3.6596
 IR Inten    --    131.3305                 6.9830                 8.7744
 Raman Activ --      0.5373                 0.3368                 0.0763

                      4                      5                      6
                     A"                     A'                     A'
 Frequencies --   1010.5510              1092.8932              1114.7954
 Red. masses --      1.3782                 4.8473                 7.2347
 Frc consts  --      0.8293                 3.4112                 5.2974
 IR Inten    --      9.2862                 1.9595                 1.6614
 Raman Activ --      0.4608                 2.2562                 2.6786

                      7                      8                      9
                     A'                     A'                     A'
 Frequencies --   1181.9207              1203.4307              1262.0324
 Red. masses --      3.5774                 2.8622                 2.3011
 Frc consts  --      2.9444                 2.4423                 2.1594
 IR Inten    --     23.9618                35.6674                18.6555
 Raman Activ --      5.0493                 2.3996                 7.4934

                     10                     11                     12
                     A'                     A'                     A'
 Frequencies --   1429.3469              1548.8171              1628.9056
 Red. masses --      2.7338                 5.7458                 3.2636
 Frc consts  --      3.2907                 8.1208                 5.1020
 IR Inten    --      1.1087                37.8370                11.4487
 Raman Activ --     10.2090                16.7798                 7.7249

                     13                     14                     15
                     A'                     A'                     A'
 Frequencies --   1721.5916              3495.6635              3925.1673
 Red. masses --      3.8070                 1.1041                 1.0854
 Frc consts  --      6.6480                 7.9490                 9.8527
 IR Inten    --     25.5089                 0.2879               139.1937
 Raman Activ --      1.5496                63.4103                62.6947

 - Thermochemistry -
 -------------------
 Temperature   298.150 Kelvin.  Pressure   1.00000 Atm.
 Atom     1 has atomic number  6 and mass  12.00000

 Molecular mass:    70.02795 amu.
 Principal axes and moments of inertia in atomic units:
                           1         2         3
     Eigenvalues --   165.28511 168.11486 333.39997
           X            0.93960   0.34228   0.00000
           Y           -0.34228   0.93960   0.00000
           Z            0.00000   0.00000   1.00000
 This molecule is an asymmetric top.
 Rotational symmetry number  1.
 Rotational temperatures (Kelvin)      0.52403     0.51521     0.25979
 Rotational constants (GHZ):          10.91896    10.73517     5.41314
 Zero-point vibrational energy     136410.1 (Joules/Mol)
                                   32.60280 (Kcal/Mol)
 Vibrational temperatures:    896.39  1082.69  1173.10  1453.96  1572.43
          (Kelvin)           1603.94  1700.52  1731.47  1815.78  2056.51
                             2228.40  2343.63  2476.98  5029.47  5647.43

 Zero-point correction=                           0.051956 (Hartree/Particle)
 Thermal correction to Energy=                    0.055251
 Thermal correction to Enthalpy=                  0.056195
 Thermal correction to Gibbs Free Energy=         0.025967
 Sum of electronic and zero-point Energies=           -256.702120
 Sum of electronic and thermal Energies=              -256.698825
 Sum of electronic and thermal Enthalpies=            -256.697881
 Sum of electronic and thermal Free Energies=         -256.728110

                     E (Thermal)             CV                S
                      KCal/Mol        Cal/Mol-Kelvin    Cal/Mol-Kelvin
 Total                   34.671             10.050             63.621
 Electronic               0.000              0.000              0.000
 Translational            0.889              2.981             38.656
 Rotational               0.889              2.981             23.742
 Vibrational             32.893              4.088              1.223

 Optimization completed.
    -- Stationary point found.
 Normal termination of Gaussian 09 at Mon Nov 25 17:32:47 2013.
