 Gaussian 09, Revision D.01,
 Gaussian 09:  EM64L-G09RevD.01 24-Apr-2013

 -----------------------------
 #HF/LANL2DZ opt=z-matrix freq
 -----------------------------

 ------------------------------------------------------------------
 1H-tetrazole CH2N4 casno=288948 state=1 config=1 method=1 basis=15
 ------------------------------------------------------------------
 Symbolic Z-matrix:
 Charge =  0 Multiplicity = 1

 SCF Done:  E(RHF) =  -256.634357328     A.U. after   15 cycles
 SCF Done:  E(RHF) =  -256.638899586     A.U. after   13 cycles
 SCF Done:  E(RHF) =  -256.638941785     A.U. after   12 cycles
 SCF Done:  E(RHF) =  -256.638796173     A.U. after   12 cycles
 SCF Done:  E(RHF) =  -256.639250883     A.U. after   11 cycles
 SCF Done:  E(RHF) =  -256.638923566     A.U. after   12 cycles
 SCF Done:  E(RHF) =  -256.639254351     A.U. after   10 cycles
 SCF Done:  E(RHF) =  -256.639119160     A.U. after   11 cycles
 SCF Done:  E(RHF) =  -256.639255312     A.U. after   10 cycles
 Optimization completed.
    -- Stationary point found.
 Normal termination of Gaussian 09 at Mon Nov 25 16:57:54 2013.

 ----------------------------------------------------------------
 #N Geom=AllCheck Guess=TCheck SCRF=Check GenChk RHF/LANL2DZ Freq
 ----------------------------------------------------------------

 Structure from the checkpoint file:  "/tmp/rdj3/g09-32362/Gau-6727.chk"
 ------------------------------------------------------------------
 1H-tetrazole CH2N4 casno=288948 state=1 config=1 method=1 basis=15
 ------------------------------------------------------------------
 Charge =  0 Multiplicity = 1

                         Standard orientation:
 ---------------------------------------------------------------------
 Center     Atomic      Atomic             Coordinates (Angstroms)
 Number     Number       Type             X           Y           Z
 ---------------------------------------------------------------------
      1          6           0        1.074372    0.242327    0.000000
      2          7           0        0.000000    1.058061    0.000000
      3          7           0       -1.122758    0.290304    0.000000
      4          7           0       -0.730700   -0.929852    0.000000
      5          7           0        0.644112   -0.997330    0.000000
      6          1           0        2.090182    0.551269    0.000000
      7          1           0       -0.070990    2.046485    0.000000
 ---------------------------------------------------------------------

 SCF Done:  E(RHF) =  -256.639255312     A.U. after    1 cycles

 The electronic state is 1-A'.
 Alpha  occ. eigenvalues --  -15.69036 -15.68913 -15.66726 -15.62621 -11.36621
 Alpha  occ. eigenvalues --   -1.54399  -1.28255  -1.23713  -0.92731  -0.90572
 Alpha  occ. eigenvalues --   -0.82252  -0.69475  -0.69241  -0.57608  -0.48139
 Alpha  occ. eigenvalues --   -0.47634  -0.47263  -0.44024
 Alpha virt. eigenvalues --    0.10918   0.16062   0.20618   0.25934   0.28292
 Alpha virt. eigenvalues --    0.32131   0.40592   0.44499   0.46808   0.53592
 Alpha virt. eigenvalues --    0.55123   0.66162   0.67259   0.68691   0.70816

 Mulliken charges:
               1
     1  C    0.017592
     2  N   -0.498003
     3  N    0.008967
     4  N   -0.059658
     5  N   -0.182888
     6  H    0.284452
     7  H    0.429537
 Sum of Mulliken charges =   0.00000

 Dipole moment (field-independent basis, Debye):
    X=              2.9347    Y=              5.4643    Z=              0.0000  Tot=              6.2025
 Quadrupole moment (field-independent basis, Debye-Ang):
   XX=            -30.3071   YY=            -28.4082   ZZ=            -29.2331
   XY=              2.3637   XZ=              0.0000   YZ=              0.0000

  Exact polarizability:  35.968   0.690  36.367   0.000   0.000  14.542
 Approx polarizability:  35.883   0.273  38.938   0.000   0.000  12.980

                      1                      2                      3
                     A"                     A"                     A"
 Frequencies --    727.5496               788.9944               813.8549
 Red. masses --      3.7843                10.8044                 1.1420
 Frc consts  --      1.1802                 3.9628                 0.4457
 IR Inten    --     12.3627                 5.5757               199.5831
 Raman Activ --      0.7305                 0.3911                 0.2317

                      4                      5                      6
                     A"                     A'                     A'
 Frequencies --   1011.2867              1045.0721              1102.8375
 Red. masses --      1.4304                 6.9398                 6.1017
 Frc consts  --      0.8619                 4.4657                 4.3725
 IR Inten    --      7.1307                 2.8889                24.3869
 Raman Activ --      0.6828                 3.6439                 4.5557

                      7                      8                      9
                     A'                     A'                     A'
 Frequencies --   1116.2365              1159.1506              1242.0496
 Red. masses --      4.7839                 5.2698                 2.0031
 Frc consts  --      3.5119                 4.1718                 1.8207
 IR Inten    --     17.4048                19.3472                20.6041
 Raman Activ --      4.0451                 8.4276                 3.8791

                     10                     11                     12
                     A'                     A'                     A'
 Frequencies --   1380.2315              1453.8442              1545.0449
 Red. masses --      2.4887                 7.2803                 2.7856
 Frc consts  --      2.7934                 9.0664                 3.9179
 IR Inten    --      1.9258                24.7350                 7.4279
 Raman Activ --     12.8493                22.3187                13.3387

                     13                     14                     15
                     A'                     A'                     A'
 Frequencies --   1666.3001              3539.8153              3972.1902
 Red. masses --      2.3930                 1.1064                 1.0867
 Frc consts  --      3.9147                 8.1685                10.1027
 IR Inten    --     47.0486                 2.6556               176.8197
 Raman Activ --      3.0724                63.8975                61.1142

 - Thermochemistry -
 -------------------
 Temperature   298.150 Kelvin.  Pressure   1.00000 Atm.
 Atom     1 has atomic number  6 and mass  12.00000

 Molecular mass:    70.02795 amu.
 Principal axes and moments of inertia in atomic units:
                           1         2         3
     Eigenvalues --   171.51373 175.48386 346.99759
           X            0.99984  -0.01778   0.00000
           Y            0.01778   0.99984   0.00000
           Z            0.00000   0.00000   1.00000
 This molecule is an asymmetric top.
 Rotational symmetry number  1.
 Rotational temperatures (Kelvin)      0.50500     0.49357     0.24961
 Rotational constants (GHZ):          10.52243    10.28437     5.20102
 Zero-point vibrational energy     134965.4 (Joules/Mol)
                                   32.25751 (Kcal/Mol)
 Vibrational temperatures:   1046.78  1135.19  1170.95  1455.01  1503.62
          (Kelvin)           1586.74  1606.01  1667.76  1787.03  1985.84
                             2091.75  2222.97  2397.43  5093.00  5715.09

 Zero-point correction=                           0.051406 (Hartree/Particle)
 Thermal correction to Energy=                    0.054665
 Thermal correction to Enthalpy=                  0.055609
 Thermal correction to Gibbs Free Energy=         0.025379
 Sum of electronic and zero-point Energies=           -256.587850
 Sum of electronic and thermal Energies=              -256.584590
 Sum of electronic and thermal Enthalpies=            -256.583646
 Sum of electronic and thermal Free Energies=         -256.613877

                     E (Thermal)             CV                S
                      KCal/Mol        Cal/Mol-Kelvin    Cal/Mol-Kelvin
 Total                   34.303              9.994             63.625
 Electronic               0.000              0.000              0.000
 Translational            0.889              2.981             38.656
 Rotational               0.889              2.981             23.861
 Vibrational             32.525              4.033              1.108

 Optimization completed.
    -- Stationary point found.
 Normal termination of Gaussian 09 at Mon Nov 25 16:57:57 2013.
