 Gaussian 09, Revision D.01,
 Gaussian 09:  EM64L-G09RevD.01 24-Apr-2013

 ----------------------------------
 #HF/6-31G(2df,p) opt=z-matrix freq
 ----------------------------------

 ------------------------------------------------------------------
 1H-tetrazole CH2N4 casno=288948 state=1 config=1 method=1 basis=19
 ------------------------------------------------------------------
 Symbolic Z-matrix:
 Charge =  0 Multiplicity = 1

 SCF Done:  E(RHF) =  -256.781975392     A.U. after   14 cycles
 SCF Done:  E(RHF) =  -256.782014810     A.U. after   10 cycles
 SCF Done:  E(RHF) =  -256.781983557     A.U. after   10 cycles
 SCF Done:  E(RHF) =  -256.782015794     A.U. after    9 cycles
 SCF Done:  E(RHF) =  -256.782017925     A.U. after    9 cycles
 SCF Done:  E(RHF) =  -256.782010958     A.U. after    9 cycles
 SCF Done:  E(RHF) =  -256.782018203     A.U. after    7 cycles
 SCF Done:  E(RHF) =  -256.781974295     A.U. after   10 cycles
 SCF Done:  E(RHF) =  -256.782018265     A.U. after    7 cycles
 SCF Done:  E(RHF) =  -256.782014176     A.U. after    8 cycles
 SCF Done:  E(RHF) =  -256.782013716     A.U. after    9 cycles
 SCF Done:  E(RHF) =  -256.774011239     A.U. after   13 cycles
 SCF Done:  E(RHF) =  -256.779752643     A.U. after   13 cycles
 SCF Done:  E(RHF) =  -256.782018265     A.U. after    1 cycles
 SCF Done:  E(RHF) =  -256.782015678     A.U. after   10 cycles
 SCF Done:  E(RHF) =  -256.782018270     A.U. after    6 cycles
 Optimization completed.
    -- Stationary point found.
 Normal termination of Gaussian 09 at Mon Nov 25 17:31:52 2013.

 ---------------------------------------------------------------------
 #N Geom=AllCheck Guess=TCheck SCRF=Check GenChk RHF/6-31G(2df,p) Freq
 ---------------------------------------------------------------------

 Structure from the checkpoint file:  "/tmp/rdj3/g09-32362/Gau-10911.chk"
 ------------------------------------------------------------------
 1H-tetrazole CH2N4 casno=288948 state=1 config=1 method=1 basis=19
 ------------------------------------------------------------------
 Charge =  0 Multiplicity = 1

                         Standard orientation:
 ---------------------------------------------------------------------
 Center     Atomic      Atomic             Coordinates (Angstroms)
 Number     Number       Type             X           Y           Z
 ---------------------------------------------------------------------
      1          6           0        1.050008    0.224889    0.000000
      2          7           0        0.000000    1.038090    0.000000
      3          7           0       -1.093300    0.290773    0.000000
      4          7           0       -0.716281   -0.899754    0.000000
      5          7           0        0.622434   -0.989148    0.000000
      6          1           0        2.069469    0.543708    0.000000
      7          1           0       -0.059487    2.027225    0.000000
 ---------------------------------------------------------------------

 SCF Done:  E(RHF) =  -256.782018270     A.U. after    1 cycles

 The electronic state is 1-A'.
 Alpha  occ. eigenvalues --  -15.67636 -15.65484 -15.63664 -15.59456 -11.33035
 Alpha  occ. eigenvalues --   -1.51637  -1.26171  -1.20517  -0.90940  -0.89217
 Alpha  occ. eigenvalues --   -0.80534  -0.68719  -0.67887  -0.56906  -0.47118
 Alpha  occ. eigenvalues --   -0.46020  -0.45475  -0.42102
 Alpha virt. eigenvalues --    0.15574   0.20279   0.20435   0.25823   0.36310
 Alpha virt. eigenvalues --    0.39143   0.43032   0.48115   0.59786   0.64931
 Alpha virt. eigenvalues --    0.65636   0.67625   0.74013   0.76434   0.77323

 Mulliken charges:
               1
     1  C    0.103113
     2  N   -0.294104
     3  N   -0.044872
     4  N   -0.069546
     5  N   -0.245789
     6  H    0.208275
     7  H    0.342923
 Sum of Mulliken charges =   0.00000

 Dipole moment (field-independent basis, Debye):
    X=              2.5881    Y=              4.8187    Z=              0.0000  Tot=              5.4697
 Quadrupole moment (field-independent basis, Debye-Ang):
   XX=            -28.3327   YY=            -26.1294   ZZ=            -28.2965
   XY=              1.9393   XZ=              0.0000   YZ=              0.0000

  Exact polarizability:  35.681   0.686  35.802   0.000   0.000  17.984
 Approx polarizability:  36.847   0.321  38.960   0.000   0.000  20.668

                      1                      2                      3
                     A"                     A"                     A"
 Frequencies --    619.1245               750.0753               817.6119
 Red. masses --      1.5542                 2.1852                 9.6033
 Frc consts  --      0.3510                 0.7244                 3.7824
 IR Inten    --    109.3751                 4.2479                 7.5697
 Raman Activ --      0.4230                 0.3235                 0.0746

                      4                      5                      6
                     A"                     A'                     A'
 Frequencies --   1017.5545              1088.4129              1111.2400
 Red. masses --      1.3849                 4.8293                 7.4336
 Frc consts  --      0.8449                 3.3707                 5.4083
 IR Inten    --      7.3713                 1.8065                 2.1449
 Raman Activ --      0.1667                 1.7280                 2.2287

                      7                      8                      9
                     A'                     A'                     A'
 Frequencies --   1171.3667              1193.6755              1255.5896
 Red. masses --      3.6951                 2.7004                 2.4029
 Frc consts  --      2.9872                 2.2670                 2.2320
 IR Inten    --     22.4380                33.4446                20.8789
 Raman Activ --      5.1482                 1.2817                 6.3553

                     10                     11                     12
                     A'                     A'                     A'
 Frequencies --   1420.4745              1539.1850              1619.0360
 Red. masses --      2.7013                 5.6542                 3.2260
 Frc consts  --      3.2114                 7.8923                 4.9823
 IR Inten    --      1.1059                33.4625                 9.9127
 Raman Activ --     10.4658                18.0406                 6.8191

                     13                     14                     15
                     A'                     A'                     A'
 Frequencies --   1710.5930              3444.1243              3925.2640
 Red. masses --      3.8333                 1.1042                 1.0848
 Frc consts  --      6.6086                 7.7174                 9.8480
 IR Inten    --     25.0749                 0.2423               138.4046
 Raman Activ --      1.3339                61.1706                60.1430

 - Thermochemistry -
 -------------------
 Temperature   298.150 Kelvin.  Pressure   1.00000 Atm.
 Atom     1 has atomic number  6 and mass  12.00000

 Molecular mass:    70.02795 amu.
 Principal axes and moments of inertia in atomic units:
                           1         2         3
     Eigenvalues --   164.82054 167.66426 332.48480
           X            0.92815   0.37220   0.00000
           Y           -0.37220   0.92815   0.00000
           Z            0.00000   0.00000   1.00000
 This molecule is an asymmetric top.
 Rotational symmetry number  1.
 Rotational temperatures (Kelvin)      0.52550     0.51659     0.26050
 Rotational constants (GHZ):          10.94973    10.76402     5.42804
 Zero-point vibrational energy     135676.4 (Joules/Mol)
                                   32.42744 (Kcal/Mol)
 Warning -- explicit consideration of   1 degrees of freedom as
           vibrations may cause significant error
 Vibrational temperatures:    890.78  1079.19  1176.36  1464.03  1565.98
          (Kelvin)           1598.82  1685.33  1717.43  1806.51  2043.74
                             2214.54  2329.43  2461.16  4955.32  5647.57

 Zero-point correction=                           0.051676 (Hartree/Particle)
 Thermal correction to Energy=                    0.054976
 Thermal correction to Enthalpy=                  0.055920
 Thermal correction to Gibbs Free Energy=         0.025690
 Sum of electronic and zero-point Energies=           -256.730342
 Sum of electronic and thermal Energies=              -256.727042
 Sum of electronic and thermal Enthalpies=            -256.726098
 Sum of electronic and thermal Free Energies=         -256.756329

                     E (Thermal)             CV                S
                      KCal/Mol        Cal/Mol-Kelvin    Cal/Mol-Kelvin
 Total                   34.498             10.084             63.625
 Electronic               0.000              0.000              0.000
 Translational            0.889              2.981             38.656
 Rotational               0.889              2.981             23.734
 Vibrational             32.721              4.122              1.236
 Vibration     1          0.979              0.992              0.418

 Optimization completed.
    -- Stationary point found.
 Normal termination of Gaussian 09 at Mon Nov 25 17:32:27 2013.
