 Gaussian 09, Revision D.01,
 Gaussian 09:  EM64L-G09RevD.01 24-Apr-2013

 ------------------------------
 #HF/CEP-121G opt=z-matrix freq
 ------------------------------

 ------------------------------------------------------------------
 1H-tetrazole CH2N4 casno=288948 state=1 config=1 method=1 basis=13
 ------------------------------------------------------------------
 Symbolic Z-matrix:
 Charge =  0 Multiplicity = 1

 SCF Done:  E(RHF) =  -45.1454105368     A.U. after   14 cycles
 SCF Done:  E(RHF) =  -45.1520947045     A.U. after   15 cycles
 SCF Done:  E(RHF) =  -45.1520495385     A.U. after   13 cycles
 SCF Done:  E(RHF) =  -45.1520920822     A.U. after   12 cycles
 SCF Done:  E(RHF) =  -45.1521230308     A.U. after   11 cycles
 SCF Done:  E(RHF) =  -45.1521779674     A.U. after   11 cycles
 SCF Done:  E(RHF) =  -45.1523499378     A.U. after   12 cycles
 SCF Done:  E(RHF) =  -45.1519677750     A.U. after   12 cycles
 SCF Done:  E(RHF) =  -45.1523715748     A.U. after   12 cycles
 SCF Done:  E(RHF) =  -45.1523581384     A.U. after   12 cycles
 SCF Done:  E(RHF) =  -45.1523764548     A.U. after   10 cycles
 SCF Done:  E(RHF) =  -45.1523726345     A.U. after   11 cycles
 SCF Done:  E(RHF) =  -45.1523777919     A.U. after   10 cycles
 SCF Done:  E(RHF) =  -45.1523780124     A.U. after    9 cycles
 SCF Done:  E(RHF) =  -45.1523739841     A.U. after   11 cycles
 SCF Done:  E(RHF) =  -45.1523772453     A.U. after   11 cycles
 SCF Done:  E(RHF) =  -45.1523780219     A.U. after    3 cycles
 Optimization completed.
    -- Stationary point found.
 Normal termination of Gaussian 09 at Mon Nov 25 16:56:59 2013.

 -----------------------------------------------------------------
 #N Geom=AllCheck Guess=TCheck SCRF=Check GenChk RHF/CEP-121G Freq
 -----------------------------------------------------------------

 Structure from the checkpoint file:  "/tmp/rdj3/g09-32362/Gau-3315.chk"
 ------------------------------------------------------------------
 1H-tetrazole CH2N4 casno=288948 state=1 config=1 method=1 basis=13
 ------------------------------------------------------------------
 Charge =  0 Multiplicity = 1

                         Standard orientation:
 ---------------------------------------------------------------------
 Center     Atomic      Atomic             Coordinates (Angstroms)
 Number     Number       Type             X           Y           Z
 ---------------------------------------------------------------------
      1          6           0        1.077367    0.243391    0.000000
      2          7           0        0.000000    1.061048    0.000000
      3          7           0       -1.128513    0.293537    0.000000
      4          7           0       -0.733333   -0.933508    0.000000
      5          7           0        0.648312   -1.001971    0.000000
      6          1           0        2.095222    0.556423    0.000000
      7          1           0       -0.064687    2.049494    0.000000
 ---------------------------------------------------------------------

 SCF Done:  E(RHF) =  -45.1523780219     A.U. after    1 cycles

 The electronic state is 1-A'.
 Alpha  occ. eigenvalues --   -1.54673  -1.28938  -1.24242  -0.92995  -0.90717
 Alpha  occ. eigenvalues --   -0.82056  -0.69065  -0.69020  -0.57317  -0.47933
 Alpha  occ. eigenvalues --   -0.47629  -0.46988  -0.43816
 Alpha virt. eigenvalues --    0.10840   0.11527   0.15645   0.15805   0.25782
 Alpha virt. eigenvalues --    0.27360   0.32563   0.40239   0.43043   0.49250
 Alpha virt. eigenvalues --    0.52651   0.55632   0.61446   0.62864   0.64995

 Mulliken charges:
               1
     1  C   -0.096720
     2  N   -0.404444
     3  N    0.023861
     4  N   -0.080603
     5  N   -0.076779
     6  H    0.233701
     7  H    0.400984
 Sum of Mulliken charges =   0.00000

 Dipole moment (field-independent basis, Debye):
    X=              2.9630    Y=              5.4811    Z=              0.0000  Tot=              6.2307
 Quadrupole moment (field-independent basis, Debye-Ang):
   XX=            -30.1668   YY=            -28.2929   ZZ=            -29.1298
   XY=              2.4131   XZ=              0.0000   YZ=              0.0000

  Exact polarizability:  37.192   0.718  37.448   0.000   0.000  18.083
 Approx polarizability:  37.225   0.291  40.188   0.000   0.000  16.566

                      1                      2                      3
                     A"                     A"                     A"
 Frequencies --    714.1540               773.8743               798.8984
 Red. masses --      4.2382                10.7753                 1.1234
 Frc consts  --      1.2736                 3.8021                 0.4225
 IR Inten    --     18.9974                 0.5363               171.0582
 Raman Activ --      0.5267                 0.2593                 0.0673

                      4                      5                      6
                     A"                     A'                     A'
 Frequencies --    987.7548              1040.4888              1097.4327
 Red. masses --      1.4021                 6.3934                 7.5817
 Frc consts  --      0.8060                 4.0781                 5.3799
 IR Inten    --     11.9219                 1.7774                 8.2842
 Raman Activ --      0.2291                 3.5827                 4.2480

                      7                      8                      9
                     A'                     A'                     A'
 Frequencies --   1121.9816              1153.0025              1232.6239
 Red. masses --      3.6966                 5.1403                 2.0308
 Frc consts  --      2.7417                 4.0262                 1.8179
 IR Inten    --     33.6815                22.2720                17.3718
 Raman Activ --      4.4915                 9.5461                 4.1409

                     10                     11                     12
                     A'                     A'                     A'
 Frequencies --   1368.2789              1452.0896              1535.8623
 Red. masses --      2.7056                 7.3170                 2.9875
 Frc consts  --      2.9845                 9.0901                 4.1520
 IR Inten    --      2.1009                21.6596                 7.4691
 Raman Activ --     15.7922                21.2363                12.9922

                     13                     14                     15
                     A'                     A'                     A'
 Frequencies --   1660.4539              3478.4597              3943.6994
 Red. masses --      2.2914                 1.1074                 1.0868
 Frc consts  --      3.7223                 7.8943                 9.9592
 IR Inten    --     43.5751                 2.6223               138.6648
 Raman Activ --      3.5605                60.6280                62.1222

 - Thermochemistry -
 -------------------
 Temperature   298.150 Kelvin.  Pressure   1.00000 Atm.
 Atom     1 has atomic number  6 and mass  12.00000

 Molecular mass:    70.02795 amu.
 Principal axes and moments of inertia in atomic units:
                           1         2         3
     Eigenvalues --   172.81171 176.94518 349.75689
           X            0.99953   0.03056   0.00000
           Y           -0.03056   0.99953   0.00000
           Z            0.00000   0.00000   1.00000
 This molecule is an asymmetric top.
 Rotational symmetry number  1.
 Rotational temperatures (Kelvin)      0.50120     0.48950     0.24764
 Rotational constants (GHZ):          10.44340    10.19944     5.15999
 Zero-point vibrational energy     133736.8 (Joules/Mol)
                                   31.96387 (Kcal/Mol)
 Vibrational temperatures:   1027.51  1113.43  1149.44  1421.16  1497.03
          (Kelvin)           1578.96  1614.28  1658.91  1773.47  1968.65
                             2089.23  2209.76  2389.02  5004.72  5674.10

 Zero-point correction=                           0.050938 (Hartree/Particle)
 Thermal correction to Energy=                    0.054217
 Thermal correction to Enthalpy=                  0.055161
 Thermal correction to Gibbs Free Energy=         0.024893
 Sum of electronic and zero-point Energies=            -45.101440
 Sum of electronic and thermal Energies=               -45.098161
 Sum of electronic and thermal Enthalpies=             -45.097217
 Sum of electronic and thermal Free Energies=          -45.127485

                     E (Thermal)             CV                S
                      KCal/Mol        Cal/Mol-Kelvin    Cal/Mol-Kelvin
 Total                   34.021             10.118             63.703
 Electronic               0.000              0.000              0.000
 Translational            0.889              2.981             38.656
 Rotational               0.889              2.981             23.885
 Vibrational             32.244              4.156              1.163

 Optimization completed.
    -- Stationary point found.
 Normal termination of Gaussian 09 at Mon Nov 25 16:57:02 2013.
