 Gaussian 09, Revision D.01,
 Gaussian 09:  EM64L-G09RevD.01 24-Apr-2013

 ---------------------------------
 #HF/6-311G(d,p) opt=z-matrix freq
 ---------------------------------

 ------------------------------------------------------------------
 1H-tetrazole CH2N4 casno=288948 state=1 config=1 method=1 basis=21
 ------------------------------------------------------------------
 Symbolic Z-matrix:
 Charge =  0 Multiplicity = 1

 SCF Done:  E(RHF) =  -256.816035151     A.U. after   14 cycles
 SCF Done:  E(RHF) =  -256.816069632     A.U. after   10 cycles
 SCF Done:  E(RHF) =  -256.816034357     A.U. after   10 cycles
 SCF Done:  E(RHF) =  -256.816070148     A.U. after    9 cycles
 SCF Done:  E(RHF) =  -256.816071104     A.U. after    9 cycles
 SCF Done:  E(RHF) =  -256.816026126     A.U. after   10 cycles
 SCF Done:  E(RHF) =  -256.816071761     A.U. after    8 cycles
 SCF Done:  E(RHF) =  -256.816064134     A.U. after    9 cycles
 SCF Done:  E(RHF) =  -256.816071798     A.U. after    7 cycles
 SCF Done:  E(RHF) =  -256.816053731     A.U. after   10 cycles
 SCF Done:  E(RHF) =  -256.816071806     A.U. after    6 cycles
 Optimization completed.
    -- Stationary point found.
 Normal termination of Gaussian 09 at Mon Nov 25 17:33:29 2013.

 --------------------------------------------------------------------
 #N Geom=AllCheck Guess=TCheck SCRF=Check GenChk RHF/6-311G(d,p) Freq
 --------------------------------------------------------------------

 Structure from the checkpoint file:  "/tmp/rdj3/g09-32362/Gau-14610.chk"
 ------------------------------------------------------------------
 1H-tetrazole CH2N4 casno=288948 state=1 config=1 method=1 basis=21
 ------------------------------------------------------------------
 Charge =  0 Multiplicity = 1

                         Standard orientation:
 ---------------------------------------------------------------------
 Center     Atomic      Atomic             Coordinates (Angstroms)
 Number     Number       Type             X           Y           Z
 ---------------------------------------------------------------------
      1          6           0        1.051891    0.223399    0.000000
      2          7           0        0.000000    1.038563    0.000000
      3          7           0       -1.093323    0.290849    0.000000
      4          7           0       -0.717125   -0.898982    0.000000
      5          7           0        0.621218   -0.988860    0.000000
      6          1           0        2.072396    0.539340    0.000000
      7          1           0       -0.059133    2.029280    0.000000
 ---------------------------------------------------------------------

 SCF Done:  E(RHF) =  -256.816071806     A.U. after    1 cycles

 The electronic state is 1-A'.
 Alpha  occ. eigenvalues --  -15.67611 -15.65334 -15.63359 -15.59237 -11.33093
 Alpha  occ. eigenvalues --   -1.52439  -1.26773  -1.21256  -0.91513  -0.89791
 Alpha  occ. eigenvalues --   -0.81140  -0.69102  -0.68514  -0.57417  -0.47672
 Alpha  occ. eigenvalues --   -0.46429  -0.45960  -0.42670
 Alpha virt. eigenvalues --    0.12924   0.14586   0.16936   0.19685   0.33598
 Alpha virt. eigenvalues --    0.36648   0.38194   0.48259   0.53768   0.56148
 Alpha virt. eigenvalues --    0.61965   0.65018   0.68973   0.74493   0.77313

 Mulliken charges:
               1
     1  C    0.305067
     2  N   -0.320115
     3  N   -0.025849
     4  N   -0.072319
     5  N   -0.299722
     6  H    0.148210
     7  H    0.264729
 Sum of Mulliken charges =   0.00000

 Dipole moment (field-independent basis, Debye):
    X=              2.6502    Y=              4.9549    Z=              0.0000  Tot=              5.6192
 Quadrupole moment (field-independent basis, Debye-Ang):
   XX=            -28.7746   YY=            -26.7150   ZZ=            -28.4423
   XY=              1.9911   XZ=              0.0000   YZ=              0.0000

  Exact polarizability:  35.205   0.695  35.645   0.000   0.000  17.134
 Approx polarizability:  35.717   0.341  38.296   0.000   0.000  18.476

                      1                      2                      3
                     A"                     A"                     A"
 Frequencies --    634.1089               750.7978               815.5345
 Red. masses --      1.6463                 2.0367                 9.2361
 Frc consts  --      0.3900                 0.6764                 3.6193
 IR Inten    --    115.1573                 7.1868                 8.7664
 Raman Activ --      0.4335                 0.2096                 0.1011

                      4                      5                      6
                     A"                     A'                     A'
 Frequencies --   1016.9250              1089.4887              1112.8009
 Red. masses --      1.3883                 4.5867                 7.8599
 Frc consts  --      0.8459                 3.2077                 5.7346
 IR Inten    --     10.3079                 1.9755                 1.7505
 Raman Activ --      0.1077                 1.8098                 2.6819

                      7                      8                      9
                     A'                     A'                     A'
 Frequencies --   1171.8955              1196.0890              1254.1333
 Red. masses --      3.3714                 2.6012                 2.6008
 Frc consts  --      2.7279                 2.1925                 2.4101
 IR Inten    --     26.9801                31.8384                21.8688
 Raman Activ --      5.3191                 1.8182                 7.4092

                     10                     11                     12
                     A'                     A'                     A'
 Frequencies --   1420.4081              1543.8512              1619.1386
 Red. masses --      2.8062                 5.2695                 3.3365
 Frc consts  --      3.3357                 7.4000                 5.1536
 IR Inten    --      1.6345                36.8016                11.5862
 Raman Activ --     12.0146                17.5960                 8.5534

                     13                     14                     15
                     A'                     A'                     A'
 Frequencies --   1716.0255              3442.2147              3908.9899
 Red. masses --      3.8350                 1.1048                 1.0854
 Frc consts  --      6.6537                 7.7128                 9.7715
 IR Inten    --     22.8862                 0.4446               143.8917
 Raman Activ --      2.0017                60.2779                60.1167

 - Thermochemistry -
 -------------------
 Temperature   298.150 Kelvin.  Pressure   1.00000 Atm.
 Atom     1 has atomic number  6 and mass  12.00000

 Molecular mass:    70.02795 amu.
 Principal axes and moments of inertia in atomic units:
                           1         2         3
     Eigenvalues --   164.79312 167.82991 332.62303
           X            0.93889   0.34421   0.00000
           Y           -0.34421   0.93889   0.00000
           Z            0.00000   0.00000   1.00000
 This molecule is an asymmetric top.
 Rotational symmetry number  1.
 Rotational temperatures (Kelvin)      0.52559     0.51608     0.26040
 Rotational constants (GHZ):          10.95156    10.75339     5.42579
 Zero-point vibrational energy     135730.7 (Joules/Mol)
                                   32.44042 (Kcal/Mol)
 Vibrational temperatures:    912.34  1080.23  1173.37  1463.13  1567.53
          (Kelvin)           1601.07  1686.09  1720.90  1804.42  2043.65
                             2221.25  2329.58  2468.97  4952.57  5624.16

 Zero-point correction=                           0.051697 (Hartree/Particle)
 Thermal correction to Energy=                    0.054989
 Thermal correction to Enthalpy=                  0.055933
 Thermal correction to Gibbs Free Energy=         0.025713
 Sum of electronic and zero-point Energies=           -256.764375
 Sum of electronic and thermal Energies=              -256.761083
 Sum of electronic and thermal Enthalpies=            -256.760139
 Sum of electronic and thermal Free Energies=         -256.790358

                     E (Thermal)             CV                S
                      KCal/Mol        Cal/Mol-Kelvin    Cal/Mol-Kelvin
 Total                   34.506             10.050             63.603
 Electronic               0.000              0.000              0.000
 Translational            0.889              2.981             38.656
 Rotational               0.889              2.981             23.735
 Vibrational             32.729              4.088              1.212

 Optimization completed.
    -- Stationary point found.
 Normal termination of Gaussian 09 at Mon Nov 25 17:33:37 2013.
