 Gaussian 09, Revision D.01,
 Gaussian 09:  EM64L-G09RevD.01 24-Apr-2013

 ----------------------------
 #HF/STO-3G opt=z-matrix freq
 ----------------------------

 ------------------------------------------------------------------
 1H-tetrazole CH2N4 casno=288948 state=1 config=1 method=1 basis=20
 ------------------------------------------------------------------
 Symbolic Z-matrix:
 Charge =  0 Multiplicity = 1

 SCF Done:  E(RHF) =  -253.451824229     A.U. after   14 cycles
 SCF Done:  E(RHF) =  -253.471552323     A.U. after   14 cycles
 SCF Done:  E(RHF) =  -253.471580654     A.U. after   12 cycles
 SCF Done:  E(RHF) =  -253.471779009     A.U. after   13 cycles
 SCF Done:  E(RHF) =  -253.471762494     A.U. after   11 cycles
 SCF Done:  E(RHF) =  -253.471812548     A.U. after   11 cycles
 SCF Done:  E(RHF) =  -253.471539651     A.U. after   12 cycles
 SCF Done:  E(RHF) =  -253.472078975     A.U. after   12 cycles
 SCF Done:  E(RHF) =  -253.472080915     A.U. after   10 cycles
 SCF Done:  E(RHF) =  -253.472081837     A.U. after   10 cycles
 SCF Done:  E(RHF) =  -253.472080211     A.U. after   10 cycles
 SCF Done:  E(RHF) =  -253.472081963     A.U. after    7 cycles
 SCF Done:  E(RHF) =  -253.472079631     A.U. after   10 cycles
 SCF Done:  E(RHF) =  -253.472081964     A.U. after    6 cycles
 Optimization completed.
    -- Stationary point found.
 Normal termination of Gaussian 09 at Mon Nov 25 17:33:01 2013.

 ---------------------------------------------------------------
 #N Geom=AllCheck Guess=TCheck SCRF=Check GenChk RHF/STO-3G Freq
 ---------------------------------------------------------------

 Structure from the checkpoint file:  "/tmp/rdj3/g09-32362/Gau-13327.chk"
 ------------------------------------------------------------------
 1H-tetrazole CH2N4 casno=288948 state=1 config=1 method=1 basis=20
 ------------------------------------------------------------------
 Charge =  0 Multiplicity = 1

                         Standard orientation:
 ---------------------------------------------------------------------
 Center     Atomic      Atomic             Coordinates (Angstroms)
 Number     Number       Type             X           Y           Z
 ---------------------------------------------------------------------
      1          6           0        1.084157    0.236012    0.000000
      2          7           0        0.000000    1.075251    0.000000
      3          7           0       -1.150226    0.300297    0.000000
      4          7           0       -0.741810   -0.944083    0.000000
      5          7           0        0.666756   -1.016523    0.000000
      6          1           0        2.111928    0.579852    0.000000
      7          1           0       -0.039907    2.099477    0.000000
 ---------------------------------------------------------------------

 SCF Done:  E(RHF) =  -253.472081964     A.U. after    1 cycles

 The electronic state is 1-A'.
 Alpha  occ. eigenvalues --  -15.48970 -15.45638 -15.42230 -15.38171 -11.15909
 Alpha  occ. eigenvalues --   -1.42077  -1.18121  -1.13736  -0.83561  -0.81451
 Alpha  occ. eigenvalues --   -0.73244  -0.60965  -0.59933  -0.48385  -0.39650
 Alpha  occ. eigenvalues --   -0.39080  -0.38092  -0.35962
 Alpha virt. eigenvalues --    0.22885   0.29556   0.49242   0.51111   0.62478
 Alpha virt. eigenvalues --    0.65647   0.70589   0.87281   0.91783

 Mulliken charges:
               1
     1  C    0.130775
     2  N   -0.242401
     3  N   -0.028955
     4  N   -0.062768
     5  N   -0.178183
     6  H    0.121048
     7  H    0.260485
 Sum of Mulliken charges =   0.00000

 Dipole moment (field-independent basis, Debye):
    X=              2.3027    Y=              4.4643    Z=              0.0000  Tot=              5.0231
 Quadrupole moment (field-independent basis, Debye-Ang):
   XX=            -27.7065   YY=            -25.6000   ZZ=            -25.7495
   XY=              1.7858   XZ=              0.0000   YZ=              0.0000

  Exact polarizability:  21.977   1.116  23.911   0.000   0.000   5.890
 Approx polarizability:  25.671   0.162  30.975   0.000   0.000   3.996

                      1                      2                      3
                     A"                     A"                     A"
 Frequencies --    516.2667               710.9405               741.9916
 Red. masses --      1.6995                 2.1218                10.7732
 Frc consts  --      0.2669                 0.6319                 3.4946
 IR Inten    --    109.5283                12.3500                 4.6763
 Raman Activ --      1.4183                 0.6671                 0.4304

                      4                      5                      6
                     A"                     A'                     A'
 Frequencies --   1001.5238              1061.3624              1091.8999
 Red. masses --      1.2849                 5.3246                 7.7697
 Frc consts  --      0.7593                 3.5340                 5.4578
 IR Inten    --      3.0686                 1.8957                 5.4575
 Raman Activ --      0.7355                 1.1361                 3.6130

                      7                      8                      9
                     A'                     A'                     A'
 Frequencies --   1191.1323              1203.7890              1258.5133
 Red. masses --      4.7778                 2.0800                 1.7223
 Frc consts  --      3.9939                 1.7759                 1.6072
 IR Inten    --     28.0928                26.1767                 3.5878
 Raman Activ --      5.8717                 2.1118                11.5463

                     10                     11                     12
                     A'                     A'                     A'
 Frequencies --   1449.7633              1555.6191              1637.4843
 Red. masses --      3.3625                 8.4366                 3.6280
 Frc consts  --      4.1640                12.0288                 5.7316
 IR Inten    --      0.6776                 6.0300                 9.2047
 Raman Activ --      9.9396                 9.7108                 7.8506

                     13                     14                     15
                     A'                     A'                     A'
 Frequencies --   1745.6367              3765.3855              4103.1488
 Red. masses --      4.1354                 1.1052                 1.0863
 Frc consts  --      7.4246                 9.2327                10.7758
 IR Inten    --     43.4926                47.3027               152.8800
 Raman Activ --      1.8579                38.9749                57.0113

 - Thermochemistry -
 -------------------
 Temperature   298.150 Kelvin.  Pressure   1.00000 Atm.
 Atom     1 has atomic number  6 and mass  12.00000

 Molecular mass:    70.02795 amu.
 Principal axes and moments of inertia in atomic units:
                           1         2         3
     Eigenvalues --   177.28730 182.49690 359.78420
           X            0.96293   0.26974   0.00000
           Y           -0.26974   0.96293   0.00000
           Z            0.00000   0.00000   1.00000
 This molecule is an asymmetric top.
 Rotational symmetry number  1.
 Rotational temperatures (Kelvin)      0.48855     0.47460     0.24074
 Rotational constants (GHZ):          10.17975     9.88916     5.01618
 Zero-point vibrational energy     137776.6 (Joules/Mol)
                                   32.92941 (Kcal/Mol)
 Warning -- explicit consideration of   1 degrees of freedom as
           vibrations may cause significant error
 Vibrational temperatures:    742.79  1022.88  1067.56  1440.97  1527.06
          (Kelvin)           1571.00  1713.77  1731.98  1810.72  2085.88
                             2238.19  2355.97  2511.58  5417.54  5903.51

 Zero-point correction=                           0.052476 (Hartree/Particle)
 Thermal correction to Energy=                    0.055879
 Thermal correction to Enthalpy=                  0.056824
 Thermal correction to Gibbs Free Energy=         0.026331
 Sum of electronic and zero-point Energies=           -253.419606
 Sum of electronic and thermal Energies=              -253.416203
 Sum of electronic and thermal Enthalpies=            -253.415258
 Sum of electronic and thermal Free Energies=         -253.445751

                     E (Thermal)             CV                S
                      KCal/Mol        Cal/Mol-Kelvin    Cal/Mol-Kelvin
 Total                   35.065             10.523             64.178
 Electronic               0.000              0.000              0.000
 Translational            0.889              2.981             38.656
 Rotational               0.889              2.981             23.969
 Vibrational             33.287              4.561              1.553
 Vibration     1          0.871              1.214              0.619

 Optimization completed.
    -- Stationary point found.
 Normal termination of Gaussian 09 at Mon Nov 25 17:33:04 2013.
