 Gaussian 09, Revision D.01,
 Gaussian 09:  EM64L-G09RevD.01 24-Apr-2013

 --------------------------
 #HF/TZVP opt=z-matrix freq
 --------------------------

 ------------------------------------------------------------------
 1H-tetrazole CH2N4 casno=288948 state=1 config=1 method=1 basis=32
 ------------------------------------------------------------------
 Symbolic Z-matrix:
 Charge =  0 Multiplicity = 1

 SCF Done:  E(RHF) =  -256.833827633     A.U. after   14 cycles
 SCF Done:  E(RHF) =  -256.833886161     A.U. after   10 cycles
 SCF Done:  E(RHF) =  -256.833845201     A.U. after   11 cycles
 SCF Done:  E(RHF) =  -256.833889130     A.U. after   10 cycles
 SCF Done:  E(RHF) =  -256.833890691     A.U. after    9 cycles
 SCF Done:  E(RHF) =  -256.833889566     A.U. after    9 cycles
 SCF Done:  E(RHF) =  -256.833886702     A.U. after    9 cycles
 SCF Done:  E(RHF) =  -256.833890901     A.U. after    8 cycles
 SCF Done:  E(RHF) =  -256.833891999     A.U. after    8 cycles
 SCF Done:  E(RHF) =  -256.833892121     A.U. after    9 cycles
 SCF Done:  E(RHF) =  -256.833890342     A.U. after    9 cycles
 SCF Done:  E(RHF) =  -256.833893186     A.U. after    8 cycles
 SCF Done:  E(RHF) =  -256.833884938     A.U. after    9 cycles
 SCF Done:  E(RHF) =  -256.833893196     A.U. after    7 cycles
 Optimization completed.
    -- Stationary point found.
 Normal termination of Gaussian 09 at Mon Nov 25 17:34:30 2013.

 -------------------------------------------------------------
 #N Geom=AllCheck Guess=TCheck SCRF=Check GenChk RHF/TZVP Freq
 -------------------------------------------------------------

 Structure from the checkpoint file:  "/tmp/rdj3/g09-32362/Gau-16945.chk"
 ------------------------------------------------------------------
 1H-tetrazole CH2N4 casno=288948 state=1 config=1 method=1 basis=32
 ------------------------------------------------------------------
 Charge =  0 Multiplicity = 1

                         Standard orientation:
 ---------------------------------------------------------------------
 Center     Atomic      Atomic             Coordinates (Angstroms)
 Number     Number       Type             X           Y           Z
 ---------------------------------------------------------------------
      1          6           0        1.051115    0.224595    0.000000
      2          7           0        0.000000    1.038322    0.000000
      3          7           0       -1.093492    0.288635    0.000000
      4          7           0       -0.717331   -0.899452    0.000000
      5          7           0        0.622707   -0.986882    0.000000
      6          1           0        2.071041    0.539576    0.000000
      7          1           0       -0.060919    2.028492    0.000000
 ---------------------------------------------------------------------

 SCF Done:  E(RHF) =  -256.833893196     A.U. after    1 cycles

 The electronic state is 1-A'.
 Alpha  occ. eigenvalues --  -15.68003 -15.65884 -15.63923 -15.59749 -11.33257
 Alpha  occ. eigenvalues --   -1.52921  -1.27114  -1.21740  -0.91850  -0.90206
 Alpha  occ. eigenvalues --   -0.81549  -0.69420  -0.68883  -0.57778  -0.47940
 Alpha  occ. eigenvalues --   -0.46763  -0.46293  -0.43108
 Alpha virt. eigenvalues --    0.11332   0.13410   0.16973   0.18225   0.22101
 Alpha virt. eigenvalues --    0.23764   0.32750   0.34062   0.39677   0.40688
 Alpha virt. eigenvalues --    0.44327   0.47396   0.48521   0.50538   0.51083

 Mulliken charges:
               1
     1  C   -0.073966
     2  N   -0.102056
     3  N   -0.068074
     4  N   -0.058103
     5  N   -0.104313
     6  H    0.139074
     7  H    0.267437
 Sum of Mulliken charges =   0.00000

 Dipole moment (field-independent basis, Debye):
    X=              2.6737    Y=              5.0332    Z=              0.0000  Tot=              5.6993
 Quadrupole moment (field-independent basis, Debye-Ang):
   XX=            -29.0892   YY=            -26.9409   ZZ=            -28.6051
   XY=              2.0513   XZ=              0.0000   YZ=              0.0000

  Exact polarizability:  37.302   0.449  37.908   0.000   0.000  20.986
 Approx polarizability:  36.560   0.206  39.298   0.000   0.000  21.831

                      1                      2                      3
                     A"                     A"                     A"
 Frequencies --    606.1892               745.0099               808.3526
 Red. masses --      1.7570                 1.9708                 8.9281
 Frc consts  --      0.3804                 0.6445                 3.4372
 IR Inten    --    103.1434                10.9303                 9.3893
 Raman Activ --      0.6724                 0.2074                 0.0801

                      4                      5                      6
                     A"                     A'                     A'
 Frequencies --    993.6842              1083.0828              1107.9700
 Red. masses --      1.3541                 5.4740                 8.3295
 Frc consts  --      0.7878                 3.7834                 6.0246
 IR Inten    --     14.5214                 1.4767                 2.2034
 Raman Activ --      0.1195                 1.9466                 2.7090

                      7                      8                      9
                     A'                     A'                     A'
 Frequencies --   1158.6833              1185.5284              1250.1447
 Red. masses --      3.6121                 2.6857                 2.4302
 Frc consts  --      2.8572                 2.2240                 2.2378
 IR Inten    --     26.0277                32.0703                24.4395
 Raman Activ --      5.2434                 2.4140                 5.6940

                     10                     11                     12
                     A'                     A'                     A'
 Frequencies --   1416.6489              1528.0638              1611.1596
 Red. masses --      2.6283                 5.4110                 3.1602
 Frc consts  --      3.1077                 7.4441                 4.8334
 IR Inten    --      1.0115                37.1996                12.3155
 Raman Activ --     13.4725                22.0827                 9.4943

                     13                     14                     15
                     A'                     A'                     A'
 Frequencies --   1707.8023              3444.2570              3904.8597
 Red. masses --      3.6738                 1.1048                 1.0853
 Frc consts  --      6.3130                 7.7220                 9.7497
 IR Inten    --     24.5119                 0.8916               148.8461
 Raman Activ --      2.2444                62.3887                63.5185

 - Thermochemistry -
 -------------------
 Temperature   298.150 Kelvin.  Pressure   1.00000 Atm.
 Atom     1 has atomic number  6 and mass  12.00000

 Molecular mass:    70.02795 amu.
 Principal axes and moments of inertia in atomic units:
                           1         2         3
     Eigenvalues --   164.68711 167.74314 332.43026
           X            0.96063   0.27783   0.00000
           Y           -0.27783   0.96063   0.00000
           Z            0.00000   0.00000   1.00000
 This molecule is an asymmetric top.
 Rotational symmetry number  1.
 Rotational temperatures (Kelvin)      0.52593     0.51635     0.26055
 Rotational constants (GHZ):          10.95861    10.75896     5.42893
 Zero-point vibrational energy     134887.5 (Joules/Mol)
                                   32.23890 (Kcal/Mol)
 Warning -- explicit consideration of   1 degrees of freedom as
           vibrations may cause significant error
 Vibrational temperatures:    872.17  1071.90  1163.04  1429.69  1558.31
          (Kelvin)           1594.12  1667.08  1705.71  1798.68  2038.24
                             2198.54  2318.10  2457.14  4955.51  5618.22

 Zero-point correction=                           0.051376 (Hartree/Particle)
 Thermal correction to Energy=                    0.054693
 Thermal correction to Enthalpy=                  0.055637
 Thermal correction to Gibbs Free Energy=         0.025383
 Sum of electronic and zero-point Energies=           -256.782517
 Sum of electronic and thermal Energies=              -256.779200
 Sum of electronic and thermal Enthalpies=            -256.778256
 Sum of electronic and thermal Free Energies=         -256.808510

                     E (Thermal)             CV                S
                      KCal/Mol        Cal/Mol-Kelvin    Cal/Mol-Kelvin
 Total                   34.320             10.191             63.675
 Electronic               0.000              0.000              0.000
 Translational            0.889              2.981             38.656
 Rotational               0.889              2.981             23.733
 Vibrational             32.543              4.230              1.286
 Vibration     1          0.965              1.019              0.439

 Optimization completed.
    -- Stationary point found.
 Normal termination of Gaussian 09 at Mon Nov 25 17:34:39 2013.
