 Gaussian 09, Revision D.01,
 Gaussian 09:  EM64L-G09RevD.01 24-Apr-2013

 -----------------------------
 #HF/6-31G** opt=z-matrix freq
 -----------------------------

 -----------------------------------------------------------------
 1H-tetrazole CH2N4 casno=288948 state=1 config=1 method=1 basis=3
 -----------------------------------------------------------------
 Symbolic Z-matrix:
 Charge =  0 Multiplicity = 1

 SCF Done:  E(RHF) =  -256.760119309     A.U. after   15 cycles
 SCF Done:  E(RHF) =  -256.760121972     A.U. after    9 cycles
 SCF Done:  E(RHF) =  -256.760085177     A.U. after   11 cycles
 SCF Done:  E(RHF) =  -256.760119379     A.U. after    9 cycles
 SCF Done:  E(RHF) =  -256.760121981     A.U. after    5 cycles
 SCF Done:  E(RHF) =  -256.760121906     A.U. after    8 cycles
 SCF Done:  E(RHF) =  -256.760099772     A.U. after   10 cycles
 SCF Done:  E(RHF) =  -256.760093042     A.U. after   11 cycles
 SCF Done:  E(RHF) =  -256.753644229     A.U. after   14 cycles
 SCF Done:  E(RHF) =  -256.758666280     A.U. after   14 cycles
 SCF Done:  E(RHF) =  -256.750551922     A.U. after   14 cycles
 SCF Done:  E(RHF) =  -256.760121985     A.U. after    4 cycles
 SCF Done:  E(RHF) =  -256.760082392     A.U. after   12 cycles
 SCF Done:  E(RHF) =  -256.760122369     A.U. after    8 cycles
 Optimization completed.
    -- Stationary point found.
 Normal termination of Gaussian 09 at Mon Nov 25 17:35:04 2013.

 -------------------------------------------------------------------
 #N Geom=AllCheck Guess=TCheck SCRF=Check GenChk RHF/6-31G(d,p) Freq
 -------------------------------------------------------------------

 Structure from the checkpoint file:  "/tmp/rdj3/g09-32362/Gau-18231.chk"
 -----------------------------------------------------------------
 1H-tetrazole CH2N4 casno=288948 state=1 config=1 method=1 basis=3
 -----------------------------------------------------------------
 Charge =  0 Multiplicity = 1

                         Standard orientation:
 ---------------------------------------------------------------------
 Center     Atomic      Atomic             Coordinates (Angstroms)
 Number     Number       Type             X           Y           Z
 ---------------------------------------------------------------------
      1          6           0        1.052596    0.225500    0.000000
      2          7           0        0.000000    1.039190    0.000000
      3          7           0       -1.095354    0.291395    0.000000
      4          7           0       -0.716566   -0.901728    0.000000
      5          7           0        0.621963   -0.989645    0.000000
      6          1           0        2.072789    0.542301    0.000000
      7          1           0       -0.058663    2.030216    0.000000
 ---------------------------------------------------------------------

 SCF Done:  E(RHF) =  -256.760122369     A.U. after    1 cycles

 The electronic state is 1-A'.
 Alpha  occ. eigenvalues --  -15.68402 -15.66100 -15.64125 -15.59949 -11.33380
 Alpha  occ. eigenvalues --   -1.52120  -1.26639  -1.20993  -0.91392  -0.89609
 Alpha  occ. eigenvalues --   -0.80936  -0.68882  -0.68324  -0.57206  -0.47466
 Alpha  occ. eigenvalues --   -0.46268  -0.45786  -0.42399
 Alpha virt. eigenvalues --    0.15061   0.20172   0.20236   0.25685   0.37608
 Alpha virt. eigenvalues --    0.39629   0.48741   0.51587   0.67234   0.73632
 Alpha virt. eigenvalues --    0.73822   0.82461   0.83124   0.90409   0.91321

 Mulliken charges:
               1
     1  C    0.365546
     2  N   -0.457893
     3  N   -0.029451
     4  N   -0.067963
     5  N   -0.367787
     6  H    0.207292
     7  H    0.350255
 Sum of Mulliken charges =   0.00000

 Dipole moment (field-independent basis, Debye):
    X=              2.6799    Y=              4.9697    Z=              0.0000  Tot=              5.6462
 Quadrupole moment (field-independent basis, Debye-Ang):
   XX=            -28.6403   YY=            -26.5272   ZZ=            -28.4920
   XY=              2.0077   XZ=              0.0000   YZ=              0.0000

  Exact polarizability:  34.414   0.738  34.805   0.000   0.000  15.300
 Approx polarizability:  35.379   0.290  37.911   0.000   0.000  16.941

                      1                      2                      3
                     A"                     A"                     A"
 Frequencies --    632.2190               750.7765               814.9606
 Red. masses --      1.6141                 2.0868                 9.4209
 Frc consts  --      0.3801                 0.6930                 3.6865
 IR Inten    --    126.9045                 6.8652                 8.6398
 Raman Activ --      0.6244                 0.3335                 0.0789

                      4                      5                      6
                     A"                     A'                     A'
 Frequencies --   1012.9142              1092.0832              1114.0320
 Red. masses --      1.3844                 4.7340                 7.0915
 Frc consts  --      0.8368                 3.3265                 5.1854
 IR Inten    --      9.5383                 2.0069                 1.5863
 Raman Activ --      0.4569                 2.2646                 2.6085

                      7                      8                      9
                     A'                     A'                     A'
 Frequencies --   1180.0301              1200.1860              1259.8487
 Red. masses --      3.5756                 2.7448                 2.3787
 Frc consts  --      2.9335                 2.3295                 2.2245
 IR Inten    --     24.9253                34.9492                19.5113
 Raman Activ --      5.0808                 2.2185                 7.8555

                     10                     11                     12
                     A'                     A'                     A'
 Frequencies --   1427.5591              1550.0087              1628.8168
 Red. masses --      2.7404                 5.7238                 3.2862
 Frc consts  --      3.2904                 8.1022                 5.1367
 IR Inten    --      1.0923                37.9706                11.4291
 Raman Activ --     10.3114                16.9960                 7.7076

                     13                     14                     15
                     A'                     A'                     A'
 Frequencies --   1720.8831              3470.3007              3932.0076
 Red. masses --      3.9004                 1.1043                 1.0852
 Frc consts  --      6.8055                 7.8355                 9.8855
 IR Inten    --     24.9640                 0.3810               144.9379
 Raman Activ --      1.5472                62.9257                62.1428

 - Thermochemistry -
 -------------------
 Temperature   298.150 Kelvin.  Pressure   1.00000 Atm.
 Atom     1 has atomic number  6 and mass  12.00000

 Molecular mass:    70.02795 amu.
 Principal axes and moments of inertia in atomic units:
                           1         2         3
     Eigenvalues --   165.29470 168.09641 333.39111
           X            0.93949   0.34257   0.00000
           Y           -0.34257   0.93949   0.00000
           Z            0.00000   0.00000   1.00000
 This molecule is an asymmetric top.
 Rotational symmetry number  1.
 Rotational temperatures (Kelvin)      0.52400     0.51526     0.25980
 Rotational constants (GHZ):          10.91832    10.73635     5.41329
 Zero-point vibrational energy     136294.3 (Joules/Mol)
                                   32.57512 (Kcal/Mol)
 Vibrational temperatures:    909.62  1080.20  1172.55  1457.36  1571.26
          (Kelvin)           1602.84  1697.80  1726.80  1812.64  2053.94
                             2230.11  2343.50  2475.96  4992.98  5657.27

 Zero-point correction=                           0.051912 (Hartree/Particle)
 Thermal correction to Energy=                    0.055203
 Thermal correction to Enthalpy=                  0.056147
 Thermal correction to Gibbs Free Energy=         0.025925
 Sum of electronic and zero-point Energies=           -256.708211
 Sum of electronic and thermal Energies=              -256.704919
 Sum of electronic and thermal Enthalpies=            -256.703975
 Sum of electronic and thermal Free Energies=         -256.734198

                     E (Thermal)             CV                S
                      KCal/Mol        Cal/Mol-Kelvin    Cal/Mol-Kelvin
 Total                   34.641             10.038             63.610
 Electronic               0.000              0.000              0.000
 Translational            0.889              2.981             38.656
 Rotational               0.889              2.981             23.742
 Vibrational             32.863              4.077              1.212

 Optimization completed.
    -- Stationary point found.
 Normal termination of Gaussian 09 at Mon Nov 25 17:35:10 2013.
