 Gaussian 09, Revision D.01,
 Gaussian 09:  EM64L-G09RevD.01 24-Apr-2013

 ------------------------------
 #HF/6-31+G** opt=z-matrix freq
 ------------------------------

 -----------------------------------------------------------------
 1H-tetrazole CH2N4 casno=288948 state=1 config=1 method=1 basis=4
 -----------------------------------------------------------------
 Symbolic Z-matrix:
 Charge =  0 Multiplicity = 1

 SCF Done:  E(RHF) =  -256.767607422     A.U. after   15 cycles
 SCF Done:  E(RHF) =  -256.767608711     A.U. after   10 cycles
 SCF Done:  E(RHF) =  -256.767582417     A.U. after   12 cycles
 SCF Done:  E(RHF) =  -256.767606866     A.U. after   11 cycles
 SCF Done:  E(RHF) =  -256.767609795     A.U. after    8 cycles
 SCF Done:  E(RHF) =  -256.767610325     A.U. after    9 cycles
 SCF Done:  E(RHF) =  -256.767612986     A.U. after   10 cycles
 SCF Done:  E(RHF) =  -256.767608207     A.U. after   10 cycles
 SCF Done:  E(RHF) =  -256.767613130     A.U. after    8 cycles
 SCF Done:  E(RHF) =  -256.767612811     A.U. after    9 cycles
 SCF Done:  E(RHF) =  -256.767613137     A.U. after    7 cycles
 SCF Done:  E(RHF) =  -256.767613110     A.U. after    8 cycles
 SCF Done:  E(RHF) =  -256.767613138     A.U. after    6 cycles
 SCF Done:  E(RHF) =  -256.767613130     A.U. after    7 cycles
 SCF Done:  E(RHF) =  -256.767613131     A.U. after    7 cycles
 Optimization completed.
    -- Stationary point found.
 Normal termination of Gaussian 09 at Mon Nov 25 17:35:45 2013.

 --------------------------------------------------------------------
 #N Geom=AllCheck Guess=TCheck SCRF=Check GenChk RHF/6-31+G(d,p) Freq
 --------------------------------------------------------------------

 Structure from the checkpoint file:  "/tmp/rdj3/g09-32362/Gau-19515.chk"
 -----------------------------------------------------------------
 1H-tetrazole CH2N4 casno=288948 state=1 config=1 method=1 basis=4
 -----------------------------------------------------------------
 Charge =  0 Multiplicity = 1

                         Standard orientation:
 ---------------------------------------------------------------------
 Center     Atomic      Atomic             Coordinates (Angstroms)
 Number     Number       Type             X           Y           Z
 ---------------------------------------------------------------------
      1          6           0        1.053206    0.226029    0.000000
      2          7           0        0.000000    1.039551    0.000000
      3          7           0       -1.094897    0.291342    0.000000
      4          7           0       -0.716756   -0.902256    0.000000
      5          7           0        0.621130   -0.989845    0.000000
      6          1           0        2.073836    0.541206    0.000000
      7          1           0       -0.059414    2.031075    0.000000
 ---------------------------------------------------------------------

 SCF Done:  E(RHF) =  -256.767613131     A.U. after    1 cycles

 The electronic state is 1-A'.
 Alpha  occ. eigenvalues --  -15.69168 -15.66989 -15.65061 -15.60926 -11.34046
 Alpha  occ. eigenvalues --   -1.52963  -1.27424  -1.21736  -0.92127  -0.90334
 Alpha  occ. eigenvalues --   -0.81579  -0.69524  -0.69005  -0.57842  -0.48105
 Alpha  occ. eigenvalues --   -0.46945  -0.46442  -0.43026
 Alpha virt. eigenvalues --    0.05155   0.08247   0.08838   0.10055   0.14036
 Alpha virt. eigenvalues --    0.14776   0.16336   0.18346   0.18967   0.20642
 Alpha virt. eigenvalues --    0.22249   0.23664   0.24715   0.27481   0.29054

 Mulliken charges:
               1
     1  C    0.132798
     2  N   -0.408109
     3  N    0.015781
     4  N    0.020629
     5  N   -0.341949
     6  H    0.208158
     7  H    0.372692
 Sum of Mulliken charges =   0.00000

 Dipole moment (field-independent basis, Debye):
    X=              2.7472    Y=              5.0646    Z=              0.0000  Tot=              5.7617
 Quadrupole moment (field-independent basis, Debye-Ang):
   XX=            -29.2212   YY=            -27.0533   ZZ=            -28.9982
   XY=              2.1085   XZ=              0.0000   YZ=              0.0000

  Exact polarizability:  38.567   0.214  39.226   0.000   0.000  22.447
 Approx polarizability:  37.653   0.077  40.320   0.000   0.000  23.098

                      1                      2                      3
                     A"                     A"                     A"
 Frequencies --    632.0279               746.2759               809.7901
 Red. masses --      1.6660                 2.0162                 9.4810
 Frc consts  --      0.3921                 0.6616                 3.6631
 IR Inten    --    119.2607                 8.9598                 8.4258
 Raman Activ --      0.1728                 0.2872                 0.0952

                      4                      5                      6
                     A"                     A'                     A'
 Frequencies --   1007.5200              1089.8876              1111.4664
 Red. masses --      1.3784                 4.7745                 7.3476
 Frc consts  --      0.8244                 3.3415                 5.3479
 IR Inten    --     12.8868                 1.9288                 0.9109
 Raman Activ --      0.1476                 1.5574                 1.9945

                      7                      8                      9
                     A'                     A'                     A'
 Frequencies --   1179.4376              1200.3122              1255.8634
 Red. masses --      3.5703                 2.7127                 2.3924
 Frc consts  --      2.9262                 2.3027                 2.2232
 IR Inten    --     26.0710                34.4732                19.7844
 Raman Activ --      5.8530                 2.6890                 5.4719

                     10                     11                     12
                     A'                     A'                     A'
 Frequencies --   1424.7211              1544.2401              1623.5728
 Red. masses --      2.7636                 5.7535                 3.2650
 Frc consts  --      3.3051                 8.0838                 5.0708
 IR Inten    --      1.2725                37.8541                13.0909
 Raman Activ --     14.2199                23.5936                 9.2865

                     13                     14                     15
                     A'                     A'                     A'
 Frequencies --   1715.0544              3471.8664              3926.8061
 Red. masses --      3.8017                 1.1045                 1.0854
 Frc consts  --      6.5885                 7.8438                 9.8612
 IR Inten    --     24.5950                 1.0110               153.1955
 Raman Activ --      2.0248                64.6504                67.0103

 - Thermochemistry -
 -------------------
 Temperature   298.150 Kelvin.  Pressure   1.00000 Atm.
 Atom     1 has atomic number  6 and mass  12.00000

 Molecular mass:    70.02795 amu.
 Principal axes and moments of inertia in atomic units:
                           1         2         3
     Eigenvalues --   165.45794 168.03780 333.49575
           X            0.94265   0.33378   0.00000
           Y           -0.33378   0.94265   0.00000
           Z            0.00000   0.00000   1.00000
 This molecule is an asymmetric top.
 Rotational symmetry number  1.
 Rotational temperatures (Kelvin)      0.52348     0.51544     0.25971
 Rotational constants (GHZ):          10.90755    10.74009     5.41159
 Zero-point vibrational energy     136008.5 (Joules/Mol)
                                   32.50681 (Kcal/Mol)
 Vibrational temperatures:    909.35  1073.72  1165.11  1449.59  1568.10
          (Kelvin)           1599.15  1696.95  1726.98  1806.91  2049.85
                             2221.81  2335.96  2467.58  4995.24  5649.79

 Zero-point correction=                           0.051803 (Hartree/Particle)
 Thermal correction to Energy=                    0.055099
 Thermal correction to Enthalpy=                  0.056043
 Thermal correction to Gibbs Free Energy=         0.025814
 Sum of electronic and zero-point Energies=           -256.715810
 Sum of electronic and thermal Energies=              -256.712514
 Sum of electronic and thermal Enthalpies=            -256.711570
 Sum of electronic and thermal Free Energies=         -256.741799

                     E (Thermal)             CV                S
                      KCal/Mol        Cal/Mol-Kelvin    Cal/Mol-Kelvin
 Total                   34.575             10.071             63.624
 Electronic               0.000              0.000              0.000
 Translational            0.889              2.981             38.656
 Rotational               0.889              2.981             23.743
 Vibrational             32.798              4.110              1.225

 Optimization completed.
    -- Stationary point found.
 Normal termination of Gaussian 09 at Mon Nov 25 17:35:53 2013.
