 Gaussian 09, Revision D.01,
 Gaussian 09:  EM64L-G09RevD.01 24-Apr-2013

 -----------------------------
 #HF/cc-pVDZ opt=z-matrix freq
 -----------------------------

 -----------------------------------------------------------------
 1H-tetrazole CH2N4 casno=288948 state=1 config=1 method=1 basis=5
 -----------------------------------------------------------------
 Symbolic Z-matrix:
 Charge =  0 Multiplicity = 1

 SCF Done:  E(RHF) =  -256.780056734     A.U. after   15 cycles
 SCF Done:  E(RHF) =  -256.780123519     A.U. after   10 cycles
 SCF Done:  E(RHF) =  -256.780128356     A.U. after    9 cycles
 SCF Done:  E(RHF) =  -256.779872228     A.U. after   11 cycles
 SCF Done:  E(RHF) =  -256.780129153     A.U. after    9 cycles
 SCF Done:  E(RHF) =  -256.780122193     A.U. after   10 cycles
 SCF Done:  E(RHF) =  -256.780129094     A.U. after    8 cycles
 SCF Done:  E(RHF) =  -256.780121027     A.U. after    9 cycles
 SCF Done:  E(RHF) =  -256.780113894     A.U. after   10 cycles
 SCF Done:  E(RHF) =  -256.774016601     A.U. after   13 cycles
 SCF Done:  E(RHF) =  -256.778270055     A.U. after   13 cycles
 SCF Done:  E(RHF) =  -256.774567849     A.U. after   14 cycles
 SCF Done:  E(RHF) =  -256.779215831     A.U. after   13 cycles
 SCF Done:  E(RHF) =  -256.774402902     A.U. after   14 cycles
 SCF Done:  E(RHF) =  -256.778260295     A.U. after   14 cycles
 SCF Done:  E(RHF) =  -256.775738600     A.U. after   14 cycles
 SCF Done:  E(RHF) =  -256.780129156     A.U. after    3 cycles
 SCF Done:  E(RHF) =  -256.780129570     A.U. after    8 cycles
 Optimization completed.
    -- Stationary point found.
 Normal termination of Gaussian 09 at Mon Nov 25 17:36:25 2013.

 ----------------------------------------------------------------
 #N Geom=AllCheck Guess=TCheck SCRF=Check GenChk RHF/CC-pVDZ Freq
 ----------------------------------------------------------------

 Structure from the checkpoint file:  "/tmp/rdj3/g09-32362/Gau-20876.chk"
 -----------------------------------------------------------------
 1H-tetrazole CH2N4 casno=288948 state=1 config=1 method=1 basis=5
 -----------------------------------------------------------------
 Charge =  0 Multiplicity = 1

                         Standard orientation:
 ---------------------------------------------------------------------
 Center     Atomic      Atomic             Coordinates (Angstroms)
 Number     Number       Type             X           Y           Z
 ---------------------------------------------------------------------
      1          6           0        1.052964    0.222980    0.000000
      2          7           0        0.000000    1.039908    0.000000
      3          7           0       -1.093988    0.293333    0.000000
      4          7           0       -0.717902   -0.899760    0.000000
      5          7           0        0.620185   -0.992704    0.000000
      6          1           0        2.080178    0.540855    0.000000
      7          1           0       -0.056022    2.035826    0.000000
 ---------------------------------------------------------------------

 SCF Done:  E(RHF) =  -256.780129570     A.U. after    1 cycles

 The electronic state is 1-A'.
 Alpha  occ. eigenvalues --  -15.67870 -15.65398 -15.63440 -15.59496 -11.33510
 Alpha  occ. eigenvalues --   -1.52066  -1.26529  -1.20855  -0.91098  -0.89442
 Alpha  occ. eigenvalues --   -0.80583  -0.68764  -0.67989  -0.56999  -0.47332
 Alpha  occ. eigenvalues --   -0.46079  -0.45626  -0.42215
 Alpha virt. eigenvalues --    0.15116   0.15842   0.19998   0.20272   0.35350
 Alpha virt. eigenvalues --    0.39599   0.42708   0.51260   0.61777   0.66064
 Alpha virt. eigenvalues --    0.69110   0.76704   0.80254   0.85169   0.86987

 Mulliken charges:
               1
     1  C    0.303959
     2  N   -0.141487
     3  N   -0.055984
     4  N   -0.076025
     5  N   -0.261064
     6  H    0.082735
     7  H    0.147865
 Sum of Mulliken charges =   0.00000

 Dipole moment (field-independent basis, Debye):
    X=              2.6146    Y=              4.8778    Z=              0.0000  Tot=              5.5344
 Quadrupole moment (field-independent basis, Debye-Ang):
   XX=            -28.6162   YY=            -26.4906   ZZ=            -28.3227
   XY=              1.9460   XZ=              0.0000   YZ=              0.0000

  Exact polarizability:  34.509   0.809  34.550   0.000   0.000  15.701
 Approx polarizability:  35.580   0.392  37.780   0.000   0.000  17.278

                      1                      2                      3
                     A"                     A"                     A"
 Frequencies --    609.8853               749.2965               816.9671
 Red. masses --      1.5620                 2.1701                 9.2937
 Frc consts  --      0.3423                 0.7178                 3.6547
 IR Inten    --    110.1050                 3.5688                 8.2591
 Raman Activ --      0.7479                 0.2698                 0.0999

                      4                      5                      6
                     A"                     A'                     A'
 Frequencies --   1004.8634              1088.2047              1113.3271
 Red. masses --      1.3935                 4.0510                 6.9503
 Frc consts  --      0.8290                 2.8264                 5.0758
 IR Inten    --     10.6673                 2.2189                 2.0892
 Raman Activ --      0.1541                 1.8120                 2.6476

                      7                      8                      9
                     A'                     A'                     A'
 Frequencies --   1175.3198              1192.2660              1252.1741
 Red. masses --      3.2590                 2.4728                 2.7533
 Frc consts  --      2.6525                 2.0710                 2.5435
 IR Inten    --     27.2049                33.1968                19.7118
 Raman Activ --      4.9621                 1.6298                 8.5256

                     10                     11                     12
                     A'                     A'                     A'
 Frequencies --   1416.5831              1546.5074              1623.2396
 Red. masses --      2.8344                 5.4014                 3.5144
 Frc consts  --      3.3511                 7.6113                 5.4559
 IR Inten    --      1.1645                36.1122                10.5766
 Raman Activ --     10.5705                17.4383                 7.9688

                     13                     14                     15
                     A'                     A'                     A'
 Frequencies --   1713.7271              3462.0457              3900.3158
 Red. masses --      4.3426                 1.1051                 1.0862
 Frc consts  --      7.5143                 7.8038                 9.7353
 IR Inten    --     20.9927                 0.8390               151.7895
 Raman Activ --      1.6275                62.3208                62.8205

 - Thermochemistry -
 -------------------
 Temperature   298.150 Kelvin.  Pressure   1.00000 Atm.
 Atom     1 has atomic number  6 and mass  12.00000

 Molecular mass:    70.02795 amu.
 Principal axes and moments of inertia in atomic units:
                           1         2         3
     Eigenvalues --   165.39660 168.25514 333.65174
           X            0.90622   0.42281   0.00000
           Y           -0.42281   0.90622   0.00000
           Z            0.00000   0.00000   1.00000
 This molecule is an asymmetric top.
 Rotational symmetry number  1.
 Rotational temperatures (Kelvin)      0.52367     0.51478     0.25959
 Rotational constants (GHZ):          10.91160    10.72622     5.40906
 Zero-point vibrational energy     135565.1 (Joules/Mol)
                                   32.40085 (Kcal/Mol)
 Warning -- explicit consideration of   1 degrees of freedom as
           vibrations may cause significant error
 Vibrational temperatures:    877.49  1078.07  1175.43  1445.77  1565.68
          (Kelvin)           1601.83  1691.02  1715.40  1801.60  2038.14
                             2225.08  2335.48  2465.67  4981.11  5611.68

 Zero-point correction=                           0.051634 (Hartree/Particle)
 Thermal correction to Energy=                    0.054940
 Thermal correction to Enthalpy=                  0.055885
 Thermal correction to Gibbs Free Energy=         0.025640
 Sum of electronic and zero-point Energies=           -256.728496
 Sum of electronic and thermal Energies=              -256.725189
 Sum of electronic and thermal Enthalpies=            -256.724245
 Sum of electronic and thermal Free Energies=         -256.754490

                     E (Thermal)             CV                S
                      KCal/Mol        Cal/Mol-Kelvin    Cal/Mol-Kelvin
 Total                   34.476             10.116             63.656
 Electronic               0.000              0.000              0.000
 Translational            0.889              2.981             38.656
 Rotational               0.889              2.981             23.744
 Vibrational             32.698              4.154              1.256
 Vibration     1          0.969              1.011              0.433

 Optimization completed.
    -- Stationary point found.
 Normal termination of Gaussian 09 at Mon Nov 25 17:36:31 2013.
