 Gaussian 09, Revision D.01,
 Gaussian 09:  EM64L-G09RevD.01 24-Apr-2013

 -----------------------------
 #HF/cc-pVTZ opt=z-matrix freq
 -----------------------------

 -----------------------------------------------------------------
 1H-tetrazole CH2N4 casno=288948 state=1 config=1 method=1 basis=6
 -----------------------------------------------------------------
 Symbolic Z-matrix:
 Charge =  0 Multiplicity = 1

 SCF Done:  E(RHF) =  -256.848466948     A.U. after   14 cycles
 SCF Done:  E(RHF) =  -256.848569957     A.U. after   10 cycles
 SCF Done:  E(RHF) =  -256.848536241     A.U. after   10 cycles
 SCF Done:  E(RHF) =  -256.848570076     A.U. after    9 cycles
 SCF Done:  E(RHF) =  -256.848572081     A.U. after    9 cycles
 SCF Done:  E(RHF) =  -256.848561403     A.U. after    9 cycles
 SCF Done:  E(RHF) =  -256.848572648     A.U. after    7 cycles
 SCF Done:  E(RHF) =  -256.848551816     A.U. after    9 cycles
 SCF Done:  E(RHF) =  -256.848572697     A.U. after    7 cycles
 SCF Done:  E(RHF) =  -256.848569551     A.U. after    8 cycles
 SCF Done:  E(RHF) =  -256.848572704     A.U. after    6 cycles
 Optimization completed.
    -- Stationary point found.
 Normal termination of Gaussian 09 at Mon Nov 25 17:38:56 2013.

 ----------------------------------------------------------------
 #N Geom=AllCheck Guess=TCheck SCRF=Check GenChk RHF/CC-pVTZ Freq
 ----------------------------------------------------------------

 Structure from the checkpoint file:  "/tmp/rdj3/g09-32362/Gau-22467.chk"
 -----------------------------------------------------------------
 1H-tetrazole CH2N4 casno=288948 state=1 config=1 method=1 basis=6
 -----------------------------------------------------------------
 Charge =  0 Multiplicity = 1

                         Standard orientation:
 ---------------------------------------------------------------------
 Center     Atomic      Atomic             Coordinates (Angstroms)
 Number     Number       Type             X           Y           Z
 ---------------------------------------------------------------------
      1          6           0        1.049614    0.224378    0.000000
      2          7           0        0.000000    1.036871    0.000000
      3          7           0       -1.091821    0.290199    0.000000
      4          7           0       -0.716484   -0.898249    0.000000
      5          7           0        0.621356   -0.987730    0.000000
      6          1           0        2.068291    0.540821    0.000000
      7          1           0       -0.057335    2.025279    0.000000
 ---------------------------------------------------------------------

 SCF Done:  E(RHF) =  -256.848572704     A.U. after    1 cycles

 The electronic state is 1-A'.
 Alpha  occ. eigenvalues --  -15.67492 -15.65341 -15.63518 -15.59312 -11.32731
 Alpha  occ. eigenvalues --   -1.52154  -1.26568  -1.20978  -0.91354  -0.89686
 Alpha  occ. eigenvalues --   -0.81013  -0.69216  -0.68368  -0.57375  -0.47569
 Alpha  occ. eigenvalues --   -0.46452  -0.45938  -0.42587
 Alpha virt. eigenvalues --    0.11745   0.14378   0.15950   0.19115   0.27129
 Alpha virt. eigenvalues --    0.29274   0.36318   0.42179   0.42259   0.48354
 Alpha virt. eigenvalues --    0.51806   0.56220   0.56688   0.57832   0.59572

 Mulliken charges:
               1
     1  C   -0.025444
     2  N   -0.047424
     3  N   -0.071134
     4  N   -0.066824
     5  N   -0.190725
     6  H    0.183637
     7  H    0.217914
 Sum of Mulliken charges =   0.00000

 Dipole moment (field-independent basis, Debye):
    X=              2.5787    Y=              4.8565    Z=              0.0000  Tot=              5.4986
 Quadrupole moment (field-independent basis, Debye-Ang):
   XX=            -28.7019   YY=            -26.5315   ZZ=            -28.4338
   XY=              1.9841   XZ=              0.0000   YZ=              0.0000

  Exact polarizability:  37.524   0.554  37.719   0.000   0.000  20.103
 Approx polarizability:  37.880   0.361  39.953   0.000   0.000  22.300

                      1                      2                      3
                     A"                     A"                     A"
 Frequencies --    619.8198               750.1750               818.9108
 Red. masses --      1.5474                 2.1725                 9.4935
 Frc consts  --      0.3503                 0.7203                 3.7510
 IR Inten    --    106.9573                 3.7530                 7.7960
 Raman Activ --      0.3365                 0.1512                 0.1213

                      4                      5                      6
                     A"                     A'                     A'
 Frequencies --   1018.2491              1085.7901              1109.0151
 Red. masses --      1.3980                 4.9531                 7.9986
 Frc consts  --      0.8540                 3.4405                 5.7961
 IR Inten    --     11.2235                 1.6063                 1.9134
 Raman Activ --      0.1583                 1.6431                 2.0409

                      7                      8                      9
                     A'                     A'                     A'
 Frequencies --   1164.0829              1187.8069              1251.3444
 Red. masses --      3.6190                 2.6710                 2.4522
 Frc consts  --      2.8894                 2.2203                 2.2624
 IR Inten    --     23.4619                30.9774                23.0291
 Raman Activ --      5.2724                 1.6069                 5.5672

                     10                     11                     12
                     A'                     A'                     A'
 Frequencies --   1416.8390              1532.9212              1615.3312
 Red. masses --      2.6979                 5.6235                 3.1876
 Frc consts  --      3.1909                 7.7856                 4.9005
 IR Inten    --      1.3348                30.7688                10.4556
 Raman Activ --     12.6038                20.1838                 7.4462

                     13                     14                     15
                     A'                     A'                     A'
 Frequencies --   1706.8757              3433.4171              3906.9557
 Red. masses --      3.7104                 1.1046                 1.0851
 Frc consts  --      6.3691                 7.6722                 9.7591
 IR Inten    --     23.7914                 0.2987               135.1784
 Raman Activ --      1.8912                62.9882                63.3526

 - Thermochemistry -
 -------------------
 Temperature   298.150 Kelvin.  Pressure   1.00000 Atm.
 Atom     1 has atomic number  6 and mass  12.00000

 Molecular mass:    70.02795 amu.
 Principal axes and moments of inertia in atomic units:
                           1         2         3
     Eigenvalues --   164.42554 167.32431 331.74986
           X            0.94279   0.33338   0.00000
           Y           -0.33338   0.94279   0.00000
           Z            0.00000   0.00000   1.00000
 This molecule is an asymmetric top.
 Rotational symmetry number  1.
 Rotational temperatures (Kelvin)      0.52677     0.51764     0.26108
 Rotational constants (GHZ):          10.97604    10.78589     5.44007
 Zero-point vibrational energy     135282.9 (Joules/Mol)
                                   32.33339 (Kcal/Mol)
 Warning -- explicit consideration of   1 degrees of freedom as
           vibrations may cause significant error
 Vibrational temperatures:    891.78  1079.33  1178.23  1465.03  1562.21
          (Kelvin)           1595.62  1674.85  1708.99  1800.40  2038.51
                             2205.53  2324.10  2455.81  4939.92  5621.23

 Zero-point correction=                           0.051527 (Hartree/Particle)
 Thermal correction to Energy=                    0.054827
 Thermal correction to Enthalpy=                  0.055771
 Thermal correction to Gibbs Free Energy=         0.025543
 Sum of electronic and zero-point Energies=           -256.797046
 Sum of electronic and thermal Energies=              -256.793745
 Sum of electronic and thermal Enthalpies=            -256.792801
 Sum of electronic and thermal Free Energies=         -256.823030

                     E (Thermal)             CV                S
                      KCal/Mol        Cal/Mol-Kelvin    Cal/Mol-Kelvin
 Total                   34.405             10.099             63.621
 Electronic               0.000              0.000              0.000
 Translational            0.889              2.981             38.656
 Rotational               0.889              2.981             23.727
 Vibrational             32.627              4.137              1.238
 Vibration     1          0.980              0.990              0.417

 Optimization completed.
    -- Stationary point found.
 Normal termination of Gaussian 09 at Mon Nov 25 17:40:02 2013.
