 Gaussian 09, Revision D.01,
 Gaussian 09:  EM64L-G09RevD.01 24-Apr-2013

 -----------------------------
 #HF/6-311G* opt=z-matrix freq
 -----------------------------

 -----------------------------------------------------------------
 1H-tetrazole CH2N4 casno=288948 state=1 config=1 method=1 basis=7
 -----------------------------------------------------------------
 Symbolic Z-matrix:
 Charge =  0 Multiplicity = 1

 SCF Done:  E(RHF) =  -256.810747258     A.U. after   14 cycles
 SCF Done:  E(RHF) =  -256.810793277     A.U. after   10 cycles
 SCF Done:  E(RHF) =  -256.810762379     A.U. after   11 cycles
 SCF Done:  E(RHF) =  -256.810793840     A.U. after    9 cycles
 SCF Done:  E(RHF) =  -256.810796252     A.U. after    9 cycles
 SCF Done:  E(RHF) =  -256.810787967     A.U. after   10 cycles
 SCF Done:  E(RHF) =  -256.810796571     A.U. after    8 cycles
 SCF Done:  E(RHF) =  -256.810783589     A.U. after    9 cycles
 SCF Done:  E(RHF) =  -256.810796601     A.U. after    7 cycles
 SCF Done:  E(RHF) =  -256.810795884     A.U. after    9 cycles
 SCF Done:  E(RHF) =  -256.810796411     A.U. after    9 cycles
 SCF Done:  E(RHF) =  -256.810796389     A.U. after    8 cycles
 SCF Done:  E(RHF) =  -256.810796608     A.U. after    7 cycles
 SCF Done:  E(RHF) =  -256.810796609     A.U. after    7 cycles
 Optimization completed.
    -- Stationary point found.
 Normal termination of Gaussian 09 at Mon Nov 25 17:40:31 2013.

 ------------------------------------------------------------------
 #N Geom=AllCheck Guess=TCheck SCRF=Check GenChk RHF/6-311G(d) Freq
 ------------------------------------------------------------------

 Structure from the checkpoint file:  "/tmp/rdj3/g09-32362/Gau-23525.chk"
 -----------------------------------------------------------------
 1H-tetrazole CH2N4 casno=288948 state=1 config=1 method=1 basis=7
 -----------------------------------------------------------------
 Charge =  0 Multiplicity = 1

                         Standard orientation:
 ---------------------------------------------------------------------
 Center     Atomic      Atomic             Coordinates (Angstroms)
 Number     Number       Type             X           Y           Z
 ---------------------------------------------------------------------
      1          6           0        1.051590    0.223330    0.000000
      2          7           0        0.000000    1.038650    0.000000
      3          7           0       -1.093296    0.291021    0.000000
      4          7           0       -0.716937   -0.898846    0.000000
      5          7           0        0.621487   -0.988928    0.000000
      6          1           0        2.071595    0.539726    0.000000
      7          1           0       -0.059918    2.027015    0.000000
 ---------------------------------------------------------------------

 SCF Done:  E(RHF) =  -256.810796609     A.U. after    1 cycles

 The electronic state is 1-A'.
 Alpha  occ. eigenvalues --  -15.67626 -15.65327 -15.63332 -15.59200 -11.33133
 Alpha  occ. eigenvalues --   -1.52456  -1.26829  -1.21266  -0.91628  -0.89819
 Alpha  occ. eigenvalues --   -0.81244  -0.69096  -0.68589  -0.57434  -0.47665
 Alpha  occ. eigenvalues --   -0.46417  -0.45939  -0.42642
 Alpha virt. eigenvalues --    0.12891   0.14747   0.16937   0.19743   0.33708
 Alpha virt. eigenvalues --    0.36697   0.38228   0.48300   0.53907   0.56243
 Alpha virt. eigenvalues --    0.62120   0.65017   0.69304   0.74761   0.77382

 Mulliken charges:
               1
     1  C    0.190997
     2  N   -0.494600
     3  N   -0.008978
     4  N   -0.072724
     5  N   -0.299442
     6  H    0.277465
     7  H    0.407283
 Sum of Mulliken charges =   0.00000

 Dipole moment (field-independent basis, Debye):
    X=              2.6513    Y=              4.9844    Z=              0.0000  Tot=              5.6457
 Quadrupole moment (field-independent basis, Debye-Ang):
   XX=            -28.7723   YY=            -26.6443   ZZ=            -28.5247
   XY=              1.9951   XZ=              0.0000   YZ=              0.0000

  Exact polarizability:  35.034   0.680  35.389   0.000   0.000  16.869
 Approx polarizability:  35.492   0.322  37.950   0.000   0.000  18.151

                      1                      2                      3
                     A"                     A"                     A"
 Frequencies --    628.9240               753.5556               815.9974
 Red. masses --      1.6789                 2.0021                 9.1343
 Frc consts  --      0.3913                 0.6698                 3.5835
 IR Inten    --    123.0699                 8.7720                 9.0609
 Raman Activ --      0.3868                 0.2211                 0.0986

                      4                      5                      6
                     A"                     A'                     A'
 Frequencies --   1004.8900              1090.7742              1114.1112
 Red. masses --      1.3839                 4.8330                 7.9830
 Frc consts  --      0.8234                 3.3879                 5.8381
 IR Inten    --     10.8112                 1.9940                 1.8613
 Raman Activ --      0.1172                 1.8320                 2.6824

                      7                      8                      9
                     A'                     A'                     A'
 Frequencies --   1174.0283              1200.8445              1256.2005
 Red. masses --      3.3877                 2.7627                 2.5227
 Frc consts  --      2.7512                 2.3473                 2.3455
 IR Inten    --     25.7208                32.4054                21.2245
 Raman Activ --      5.3265                 1.8332                 7.0335

                     10                     11                     12
                     A'                     A'                     A'
 Frequencies --   1424.2558              1546.5685              1626.9982
 Red. masses --      2.8258                 5.4684                 3.2334
 Frc consts  --      3.3772                 7.7063                 5.0429
 IR Inten    --      1.8916                35.9254                12.2051
 Raman Activ --     12.0925                17.2583                 8.2671

                     13                     14                     15
                     A'                     A'                     A'
 Frequencies --   1723.7249              3463.1906              3949.8518
 Red. masses --      3.5063                 1.1045                 1.0851
 Frc consts  --      6.1381                 7.8046                 9.9740
 IR Inten    --     24.7285                 0.1882               120.7049
 Raman Activ --      2.1216                60.3529                61.9951

 - Thermochemistry -
 -------------------
 Temperature   298.150 Kelvin.  Pressure   1.00000 Atm.
 Atom     1 has atomic number  6 and mass  12.00000

 Molecular mass:    70.02795 amu.
 Principal axes and moments of inertia in atomic units:
                           1         2         3
     Eigenvalues --   164.73639 167.82459 332.56099
           X            0.93428   0.35654   0.00000
           Y           -0.35654   0.93428   0.00000
           Z            0.00000   0.00000   1.00000
 This molecule is an asymmetric top.
 Rotational symmetry number  1.
 Rotational temperatures (Kelvin)      0.52577     0.51610     0.26044
 Rotational constants (GHZ):          10.95533    10.75373     5.42680
 Zero-point vibrational energy     136218.3 (Joules/Mol)
                                   32.55695 (Kcal/Mol)
 Vibrational temperatures:    904.88  1084.20  1174.04  1445.81  1569.38
          (Kelvin)           1602.96  1689.16  1727.75  1807.39  2049.18
                             2225.16  2340.88  2480.05  4982.75  5682.95

 Zero-point correction=                           0.051883 (Hartree/Particle)
 Thermal correction to Energy=                    0.055177
 Thermal correction to Enthalpy=                  0.056121
 Thermal correction to Gibbs Free Energy=         0.025898
 Sum of electronic and zero-point Energies=           -256.758914
 Sum of electronic and thermal Energies=              -256.755620
 Sum of electronic and thermal Enthalpies=            -256.754676
 Sum of electronic and thermal Free Energies=         -256.784898

                     E (Thermal)             CV                S
                      KCal/Mol        Cal/Mol-Kelvin    Cal/Mol-Kelvin
 Total                   34.624             10.056             63.609
 Electronic               0.000              0.000              0.000
 Translational            0.889              2.981             38.656
 Rotational               0.889              2.981             23.734
 Vibrational             32.846              4.094              1.218

 Optimization completed.
    -- Stationary point found.
 Normal termination of Gaussian 09 at Mon Nov 25 17:40:38 2013.
