 Gaussian 09, Revision D.01,
 Gaussian 09:  EM64L-G09RevD.01 24-Apr-2013

 ----------------------------
 #HF/3-21G* opt=z-matrix freq
 ----------------------------

 -----------------------------------------------------------------
 1H-tetrazole CH2N4 casno=288948 state=1 config=1 method=1 basis=8
 -----------------------------------------------------------------
 Symbolic Z-matrix:
 Charge =  0 Multiplicity = 1

 SCF Done:  E(RHF) =  -255.261114440     A.U. after   14 cycles
 SCF Done:  E(RHF) =  -255.267925788     A.U. after   12 cycles
 SCF Done:  E(RHF) =  -255.268198931     A.U. after   13 cycles
 SCF Done:  E(RHF) =  -255.267104274     A.U. after   12 cycles
 SCF Done:  E(RHF) =  -255.268677744     A.U. after   12 cycles
 SCF Done:  E(RHF) =  -255.267112067     A.U. after   12 cycles
 SCF Done:  E(RHF) =  -255.267973898     A.U. after   13 cycles
 SCF Done:  E(RHF) =  -255.268688250     A.U. after    9 cycles
 SCF Done:  E(RHF) =  -255.268729095     A.U. after   12 cycles
 SCF Done:  E(RHF) =  -255.268629348     A.U. after   12 cycles
 SCF Done:  E(RHF) =  -255.268753273     A.U. after   11 cycles
 SCF Done:  E(RHF) =  -255.268755005     A.U. after   10 cycles
 SCF Done:  E(RHF) =  -255.268706767     A.U. after   12 cycles
 SCF Done:  E(RHF) =  -255.268755223     A.U. after    9 cycles
 Optimization completed.
    -- Stationary point found.
 Normal termination of Gaussian 09 at Mon Nov 25 17:40:53 2013.

 ---------------------------------------------------------------
 #N Geom=AllCheck Guess=TCheck SCRF=Check GenChk RHF/3-21G* Freq
 ---------------------------------------------------------------

 Structure from the checkpoint file:  "/tmp/rdj3/g09-32362/Gau-24809.chk"
 -----------------------------------------------------------------
 1H-tetrazole CH2N4 casno=288948 state=1 config=1 method=1 basis=8
 -----------------------------------------------------------------
 Charge =  0 Multiplicity = 1

                         Standard orientation:
 ---------------------------------------------------------------------
 Center     Atomic      Atomic             Coordinates (Angstroms)
 Number     Number       Type             X           Y           Z
 ---------------------------------------------------------------------
      1          6           0        1.068022    0.246204    0.000000
      2          7           0        0.000000    1.065551    0.000000
      3          7           0       -1.138623    0.276336    0.000000
      4          7           0       -0.738592   -0.937345    0.000000
      5          7           0        0.675235   -0.991544    0.000000
      6          1           0        2.076833    0.574675    0.000000
      7          1           0       -0.071101    2.057110    0.000000
 ---------------------------------------------------------------------

 SCF Done:  E(RHF) =  -255.268755223     A.U. after    1 cycles

 The electronic state is 1-A'.
 Alpha  occ. eigenvalues --  -15.61404 -15.61118 -15.58952 -15.54269 -11.29866
 Alpha  occ. eigenvalues --   -1.51930  -1.25844  -1.23052  -0.90575  -0.89106
 Alpha  occ. eigenvalues --   -0.81331  -0.68194  -0.67422  -0.56643  -0.47320
 Alpha  occ. eigenvalues --   -0.46304  -0.46011  -0.43567
 Alpha virt. eigenvalues --    0.13524   0.18800   0.23778   0.27111   0.36490
 Alpha virt. eigenvalues --    0.39659   0.51375   0.56473   0.66048   0.93495
 Alpha virt. eigenvalues --    0.94194   1.05571   1.09760   1.21972   1.31894

 Mulliken charges:
               1
     1  C    0.450613
     2  N   -0.690608
     3  N   -0.005486
     4  N   -0.071206
     5  N   -0.421255
     6  H    0.319712
     7  H    0.418230
 Sum of Mulliken charges =   0.00000

 Dipole moment (field-independent basis, Debye):
    X=              2.7468    Y=              5.1592    Z=              0.0000  Tot=              5.8449
 Quadrupole moment (field-independent basis, Debye-Ang):
   XX=            -29.2951   YY=            -27.4504   ZZ=            -28.8798
   XY=              2.2609   XZ=              0.0000   YZ=              0.0000

  Exact polarizability:  31.658   1.089  32.380   0.000   0.000  10.735
 Approx polarizability:  33.955   0.170  38.358   0.000   0.000   9.184

                      1                      2                      3
                     A"                     A"                     A"
 Frequencies --    719.5199               759.6382               762.6078
 Red. masses --      4.2709                 1.1368                 8.8770
 Frc consts  --      1.3027                 0.3865                 3.0417
 IR Inten    --     32.3485               170.4713                12.7307
 Raman Activ --      0.8931                 0.3744                 0.3744

                      4                      5                      6
                     A'                     A'                     A"
 Frequencies --    898.4088               982.0053              1076.1248
 Red. masses --     10.9381                 5.5434                 1.4144
 Frc consts  --      5.2016                 3.1496                 0.9650
 IR Inten    --     10.0066                23.9239                 5.8865
 Raman Activ --      4.4281                 3.1030                 0.7794

                      7                      8                      9
                     A'                     A'                     A'
 Frequencies --   1094.2949              1124.0875              1209.8507
 Red. masses --      5.0233                 5.4773                 2.4337
 Frc consts  --      3.5441                 4.0777                 2.0989
 IR Inten    --      8.6466                10.7094                19.3224
 Raman Activ --      3.2112                 5.2244                 4.1481

                     10                     11                     12
                     A'                     A'                     A'
 Frequencies --   1337.4624              1356.9426              1506.5259
 Red. masses --      4.9839                 2.3248                 2.3656
 Frc consts  --      5.2527                 2.5221                 3.1634
 IR Inten    --     13.0632                 6.2610                 9.1216
 Raman Activ --     10.3472                14.2226                 9.5523

                     13                     14                     15
                     A'                     A'                     A'
 Frequencies --   1618.3739              3505.1640              3863.3432
 Red. masses --      2.4909                 1.1034                 1.0853
 Frc consts  --      3.8438                 7.9873                 9.5439
 IR Inten    --     56.3270                 2.7389               176.4809
 Raman Activ --      2.7332                60.1971                62.9586

 - Thermochemistry -
 -------------------
 Temperature   298.150 Kelvin.  Pressure   1.00000 Atm.
 Atom     1 has atomic number  6 and mass  12.00000

 Molecular mass:    70.02795 amu.
 Principal axes and moments of inertia in atomic units:
                           1         2         3
     Eigenvalues --   172.35822 179.13408 351.49229
           X            0.99966  -0.02616   0.00000
           Y            0.02616   0.99966   0.00000
           Z            0.00000   0.00000   1.00000
 This molecule is an asymmetric top.
 Rotational symmetry number  1.
 Rotational temperatures (Kelvin)      0.50252     0.48351     0.24642
 Rotational constants (GHZ):          10.47087    10.07481     5.13451
 Zero-point vibrational energy     130478.8 (Joules/Mol)
                                   31.18518 (Kcal/Mol)
 Vibrational temperatures:   1035.23  1092.95  1097.22  1292.61  1412.88
          (Kelvin)           1548.30  1574.44  1617.31  1740.70  1924.31
                             1952.34  2167.55  2328.48  5043.14  5558.48

 Zero-point correction=                           0.049697 (Hartree/Particle)
 Thermal correction to Energy=                    0.053027
 Thermal correction to Enthalpy=                  0.053971
 Thermal correction to Gibbs Free Energy=         0.023631
 Sum of electronic and zero-point Energies=           -255.219058
 Sum of electronic and thermal Energies=              -255.215728
 Sum of electronic and thermal Enthalpies=            -255.214784
 Sum of electronic and thermal Free Energies=         -255.245124

                     E (Thermal)             CV                S
                      KCal/Mol        Cal/Mol-Kelvin    Cal/Mol-Kelvin
 Total                   33.275             10.507             63.855
 Electronic               0.000              0.000              0.000
 Translational            0.889              2.981             38.656
 Rotational               0.889              2.981             23.899
 Vibrational             31.497              4.546              1.300

 Optimization completed.
    -- Stationary point found.
 Normal termination of Gaussian 09 at Mon Nov 25 17:40:55 2013.
