 Gaussian 09, Revision D.01,
 Gaussian 09:  EM64L-G09RevD.01 24-Apr-2013

 ---------------------------
 #HF/6-31G opt=z-matrix freq
 ---------------------------

 -----------------------------------------------------------------
 1H-tetrazole CH2N4 casno=288948 state=1 config=1 method=1 basis=9
 -----------------------------------------------------------------
 Symbolic Z-matrix:
 Charge =  0 Multiplicity = 1

 SCF Done:  E(RHF) =  -256.588556245     A.U. after   15 cycles
 SCF Done:  E(RHF) =  -256.590845745     A.U. after   13 cycles
 SCF Done:  E(RHF) =  -256.591047593     A.U. after   12 cycles
 SCF Done:  E(RHF) =  -256.590134394     A.U. after   12 cycles
 SCF Done:  E(RHF) =  -256.591230066     A.U. after   12 cycles
 SCF Done:  E(RHF) =  -256.590493031     A.U. after   13 cycles
 SCF Done:  E(RHF) =  -256.591241424     A.U. after   11 cycles
 SCF Done:  E(RHF) =  -256.590798678     A.U. after   12 cycles
 SCF Done:  E(RHF) =  -256.591242711     A.U. after   10 cycles
 SCF Done:  E(RHF) =  -256.591243240     A.U. after    9 cycles
 SCF Done:  E(RHF) =  -256.591243343     A.U. after    9 cycles
 SCF Done:  E(RHF) =  -256.591232631     A.U. after   11 cycles
 SCF Done:  E(RHF) =  -256.591243351     A.U. after    8 cycles
 SCF Done:  E(RHF) =  -256.591242793     A.U. after    9 cycles
 SCF Done:  E(RHF) =  -256.591243354     A.U. after    8 cycles
 SCF Done:  E(RHF) =  -256.591243096     A.U. after    8 cycles
 SCF Done:  E(RHF) =  -256.591243362     A.U. after    8 cycles
 Optimization completed.
    -- Stationary point found.
 Normal termination of Gaussian 09 at Mon Nov 25 17:41:13 2013.

 --------------------------------------------------------------
 #N Geom=AllCheck Guess=TCheck SCRF=Check GenChk RHF/6-31G Freq
 --------------------------------------------------------------

 Structure from the checkpoint file:  "/tmp/rdj3/g09-32362/Gau-26092.chk"
 -----------------------------------------------------------------
 1H-tetrazole CH2N4 casno=288948 state=1 config=1 method=1 basis=9
 -----------------------------------------------------------------
 Charge =  0 Multiplicity = 1

                         Standard orientation:
 ---------------------------------------------------------------------
 Center     Atomic      Atomic             Coordinates (Angstroms)
 Number     Number       Type             X           Y           Z
 ---------------------------------------------------------------------
      1          6           0        1.069384    0.239626    0.000000
      2          7           0        0.000000    1.051421    0.000000
      3          7           0       -1.116325    0.287663    0.000000
      4          7           0       -0.729466   -0.922043    0.000000
      5          7           0        0.640602   -0.992399    0.000000
      6          1           0        2.083640    0.551687    0.000000
      7          1           0       -0.063621    2.038060    0.000000
 ---------------------------------------------------------------------

 SCF Done:  E(RHF) =  -256.591243362     A.U. after    1 cycles

 The electronic state is 1-A'.
 Alpha  occ. eigenvalues --  -15.69739 -15.69163 -15.66956 -15.62925 -11.36170
 Alpha  occ. eigenvalues --   -1.55231  -1.28546  -1.24250  -0.92741  -0.90811
 Alpha  occ. eigenvalues --   -0.82371  -0.69733  -0.69315  -0.57624  -0.47923
 Alpha  occ. eigenvalues --   -0.47427  -0.47183  -0.43999
 Alpha virt. eigenvalues --    0.12158   0.17514   0.19531   0.24504   0.35672
 Alpha virt. eigenvalues --    0.36148   0.46471   0.48811   0.63855   0.73178
 Alpha virt. eigenvalues --    0.77055   0.85269   0.88719   0.91328   0.92424

 Mulliken charges:
               1
     1  C    0.403635
     2  N   -0.721879
     3  N    0.046400
     4  N   -0.076968
     5  N   -0.374577
     6  H    0.286552
     7  H    0.436839
 Sum of Mulliken charges =   0.00000

 Dipole moment (field-independent basis, Debye):
    X=              2.9818    Y=              5.3860    Z=              0.0000  Tot=              6.1563
 Quadrupole moment (field-independent basis, Debye-Ang):
   XX=            -29.9741   YY=            -28.1927   ZZ=            -29.0705
   XY=              2.3043   XZ=              0.0000   YZ=              0.0000

  Exact polarizability:  34.189   0.854  34.660   0.000   0.000  13.286
 Approx polarizability:  35.221   0.272  38.486   0.000   0.000  11.994

                      1                      2                      3
                     A"                     A"                     A"
 Frequencies --    741.7169               798.9835               825.2967
 Red. masses --      3.4424                 8.2070                 1.2172
 Frc consts  --      1.1158                 3.0868                 0.4884
 IR Inten    --      6.8259                16.2636               202.9839
 Raman Activ --      0.6480                 0.1858                 0.2102

                      4                      5                      6
                     A'                     A"                     A'
 Frequencies --   1014.9303              1043.6096              1086.8725
 Red. masses --      8.5252                 1.4348                 4.7281
 Frc consts  --      5.1740                 0.9207                 3.2908
 IR Inten    --      5.7597                 5.1631                31.3178
 Raman Activ --      4.2266                 0.5277                 4.0710

                      7                      8                      9
                     A'                     A'                     A'
 Frequencies --   1121.2734              1157.9473              1245.3043
 Red. masses --      6.5298                 4.0864                 2.1673
 Frc consts  --      4.8370                 3.2282                 1.9802
 IR Inten    --      3.1523                17.8771                19.0768
 Raman Activ --      4.4720                 5.8432                 4.6337

                     10                     11                     12
                     A'                     A'                     A'
 Frequencies --   1386.6697              1460.1308              1569.1911
 Red. masses --      2.2539                 7.9237                 2.8644
 Frc consts  --      2.5535                 9.9532                 4.1556
 IR Inten    --      2.4975                23.1400                 6.5851
 Raman Activ --      9.0114                19.1285                10.2482

                     13                     14                     15
                     A'                     A'                     A'
 Frequencies --   1680.2664              3536.8290              3969.9023
 Red. masses --      2.4155                 1.1064                 1.0860
 Frc consts  --      4.0181                 8.1544                10.0844
 IR Inten    --     50.6592                 5.5577               170.6254
 Raman Activ --      2.5381                60.9673                56.4510

 - Thermochemistry -
 -------------------
 Temperature   298.150 Kelvin.  Pressure   1.00000 Atm.
 Atom     1 has atomic number  6 and mass  12.00000

 Molecular mass:    70.02795 amu.
 Principal axes and moments of inertia in atomic units:
                           1         2         3
     Eigenvalues --   169.34194 173.89314 343.23508
           X            0.99927  -0.03819   0.00000
           Y            0.03819   0.99927   0.00000
           Z            0.00000   0.00000   1.00000
 This molecule is an asymmetric top.
 Rotational symmetry number  1.
 Rotational temperatures (Kelvin)      0.51147     0.49809     0.25235
 Rotational constants (GHZ):          10.65738    10.37845     5.25803
 Zero-point vibrational energy     135410.8 (Joules/Mol)
                                   32.36397 (Kcal/Mol)
 Vibrational temperatures:   1067.16  1149.56  1187.42  1460.26  1501.52
          (Kelvin)           1563.77  1613.26  1666.03  1791.71  1995.11
                             2100.80  2257.71  2417.53  5088.70  5711.80

 Zero-point correction=                           0.051575 (Hartree/Particle)
 Thermal correction to Energy=                    0.054823
 Thermal correction to Enthalpy=                  0.055768
 Thermal correction to Gibbs Free Energy=         0.025568
 Sum of electronic and zero-point Energies=           -256.539668
 Sum of electronic and thermal Energies=              -256.536420
 Sum of electronic and thermal Enthalpies=            -256.535476
 Sum of electronic and thermal Free Energies=         -256.565676

                     E (Thermal)             CV                S
                      KCal/Mol        Cal/Mol-Kelvin    Cal/Mol-Kelvin
 Total                   34.402              9.928             63.561
 Electronic               0.000              0.000              0.000
 Translational            0.889              2.981             38.656
 Rotational               0.889              2.981             23.829
 Vibrational             32.625              3.966              1.076

 Optimization completed.
    -- Stationary point found.
 Normal termination of Gaussian 09 at Mon Nov 25 17:41:16 2013.
