 Gaussian 09, Revision D.01,
 Gaussian 09:  EM64L-G09RevD.01 24-Apr-2013

 ---
 #G3
 ---
 1/18=20,19=15,38=1/1,3;
 2/9=110,12=2,17=6,18=5,40=1/2;
 3/5=33,7=1,11=9,16=1,25=1,30=1,71=1/1,2,3;
 4//1;
 5/5=2,38=5/2;

 ------------------------------------------------------------------
 1H-tetrazole CH2N4 casno=288948 state=1 config=1 method=21 basis=0
 ------------------------------------------------------------------
 Symbolic Z-matrix:
 Charge =  0 Multiplicity = 1

 SCF Done:  E(RHF) =  -256.754076285     A.U. after   15 cycles
 Optimization completed.
    -- Stationary point found.
 Normal termination of Gaussian 09 at Mon Nov 25 16:55:44 2013.

 -------------------------------------------------------
 #N Geom=AllCheck Guess=TCheck SCRF=Check HF/GTBas1 Freq
 -------------------------------------------------------

 Structure from the checkpoint file:  "/tmp/rdj3/g09-15973/Gau-16029.chk"
 ------------------------------------------------------------------
 1H-tetrazole CH2N4 casno=288948 state=1 config=1 method=21 basis=0
 ------------------------------------------------------------------
 Charge =  0 Multiplicity = 1

 SCF Done:  E(RHF) =  -256.754076285     A.U. after    1 cycles

  Exact polarizability:  34.268   0.713  34.628   0.000   0.000  15.168
 Approx polarizability:  35.233   0.271  37.690   0.000   0.000  16.765

                      1                      2                      3
                     A"                     A"                     A"
 Frequencies --    623.0338               752.5022               815.3130
 Red. masses --      1.6202                 2.0953                 9.3391
 Frc consts  --      0.3705                 0.6991                 3.6577
 IR Inten    --    131.3240                 6.9888                 8.7742
 Raman Activ --      0.5374                 0.3369                 0.0763

                      4                      5                      6
                     A"                     A'                     A'
 Frequencies --   1010.6802              1092.8572              1114.8344
 Red. masses --      1.3781                 4.8529                 7.2343
 Frc consts  --      0.8294                 3.4149                 5.2974
 IR Inten    --      9.2888                 1.9502                 1.6710
 Raman Activ --      0.4613                 2.2627                 2.6780

                      7                      8                      9
                     A'                     A'                     A'
 Frequencies --   1182.0507              1203.4442              1262.0686
 Red. masses --      3.5729                 2.8580                 2.3058
 Frc consts  --      2.9413                 2.4387                 2.1639
 IR Inten    --     23.9895                35.6148                18.6541
 Raman Activ --      5.0559                 2.3818                 7.5000

                     10                     11                     12
                     A'                     A'                     A'
 Frequencies --   1429.4341              1549.0277              1628.9131
 Red. masses --      2.7327                 5.7339                 3.2629
 Frc consts  --      3.2898                 8.1063                 5.1009
 IR Inten    --      1.1114                37.9072                11.4278
 Raman Activ --     10.1982                16.7603                 7.7501

                     13                     14                     15
                     A'                     A'                     A'
 Frequencies --   1721.7843              3495.4310              3925.0524
 Red. masses --      3.8117                 1.1041                 1.0854
 Frc consts  --      6.6578                 7.9480                 9.8521
 IR Inten    --     25.4869                 0.2866               139.1853
 Raman Activ --      1.5472                63.4200                62.6998

 - Thermochemistry -
 -------------------
 Temperature   298.150 Kelvin.  Pressure   1.00000 Atm.
 Atom     1 has atomic number  6 and mass  12.00000

 Molecular mass:    70.02795 amu.
 Principal axes and moments of inertia in atomic units:
                           1         2         3
     Eigenvalues --   165.26704 168.12523 333.39228
           X            0.93808   0.34643   0.00000
           Y           -0.34643   0.93808   0.00000
           Z            0.00000   0.00000   1.00000
 This molecule is an asymmetric top.
 Rotational symmetry number  1.
 Rotational temperatures (Kelvin)      0.52408     0.51517     0.25980
 Rotational constants (GHZ):          10.92015    10.73451     5.41327
 Zero-point vibrational energy     136412.7 (Joules/Mol)
                                   32.60342 (Kcal/Mol)
 Vibrational temperatures:    896.41  1082.68  1173.05  1454.14  1572.38
          (Kelvin)           1604.00  1700.71  1731.49  1815.83  2056.63
                             2228.70  2343.64  2477.26  5029.14  5647.27

 Zero-point correction=                           0.051957 (Hartree/Particle)
 Thermal correction to Energy=                    0.055252
 Thermal correction to Enthalpy=                  0.056196
 Thermal correction to Gibbs Free Energy=         0.025968
 Sum of electronic and zero-point Energies=           -256.702119
 Sum of electronic and thermal Energies=              -256.698824
 Sum of electronic and thermal Enthalpies=            -256.697880
 Sum of electronic and thermal Free Energies=         -256.728108

                     E (Thermal)             CV                S
                      KCal/Mol        Cal/Mol-Kelvin    Cal/Mol-Kelvin
 Total                   34.671             10.049             63.621
 Electronic               0.000              0.000              0.000
 Translational            0.889              2.981             38.656
 Rotational               0.889              2.981             23.742
 Vibrational             32.894              4.088              1.223

 Optimization completed.
    -- Stationary point found.
 Normal termination of Gaussian 09 at Mon Nov 25 16:55:49 2013.

 ------------------------------------------------------------------
 #N Geom=AllCheck Guess=TCheck SCRF=Check MP2(Full)/GTBas1 Opt=RCFC
 ------------------------------------------------------------------

 Structure from the checkpoint file:  "/tmp/rdj3/g09-15973/Gau-16029.chk"
 ------------------------------------------------------------------
 1H-tetrazole CH2N4 casno=288948 state=1 config=1 method=21 basis=0
 ------------------------------------------------------------------
 Charge =  0 Multiplicity = 1

 SCF Done:  E(RHF) =  -256.754076285     A.U. after    1 cycles
 E2 =    -0.7928445388D+00 EUMP2 =    -0.25754692082409D+03
 SCF Done:  E(RHF) =  -256.748444034     A.U. after   13 cycles
 E2 =    -0.8056246747D+00 EUMP2 =    -0.25755406870908D+03
 SCF Done:  E(RHF) =  -256.745160476     A.U. after   12 cycles
 E2 =    -0.8092578848D+00 EUMP2 =    -0.25755441836032D+03
 SCF Done:  E(RHF) =  -256.744986218     A.U. after   11 cycles
 E2 =    -0.8094415825D+00 EUMP2 =    -0.25755442780012D+03
 SCF Done:  E(RHF) =  -256.744974785     A.U. after   10 cycles
 E2 =    -0.8094537380D+00 EUMP2 =    -0.25755442852271D+03
 Optimization completed.
    -- Stationary point found.
 Normal termination of Gaussian 09 at Mon Nov 25 16:56:09 2013.

 ------------------------------------------------------------------
 #N Geom=AllCheck Guess=TCheck SCRF=Check QCISD(T,E4T,FrzG3)/GTBas1
 ------------------------------------------------------------------

 Structure from the checkpoint file:  "/tmp/rdj3/g09-15973/Gau-16029.chk"
 ------------------------------------------------------------------
 1H-tetrazole CH2N4 casno=288948 state=1 config=1 method=21 basis=0
 ------------------------------------------------------------------
 Charge =  0 Multiplicity = 1

 SCF Done:  E(RHF) =  -256.744974785     A.U. after    1 cycles
 E2 =    -0.7907630039D+00 EUMP2 =    -0.25753573778868D+03
 Normal termination of Gaussian 09 at Mon Nov 25 16:56:36 2013.

 ---------------------------------------------------------
 #N Geom=AllCheck Guess=TCheck SCRF=Check MP4=FrzG3/GTBas2
 ---------------------------------------------------------

 Structure from the checkpoint file:  "/tmp/rdj3/g09-15973/Gau-16029.chk"
 ------------------------------------------------------------------
 1H-tetrazole CH2N4 casno=288948 state=1 config=1 method=21 basis=0
 ------------------------------------------------------------------
 Charge =  0 Multiplicity = 1

 SCF Done:  E(RHF) =  -256.752709087     A.U. after   14 cycles
 E2 =    -0.7998518839D+00 EUMP2 =    -0.25755256097119D+03
 Normal termination of Gaussian 09 at Mon Nov 25 16:56:55 2013.

 ---------------------------------------------------------
 #N Geom=AllCheck Guess=TCheck SCRF=Check MP4=FrzG3/GTBas3
 ---------------------------------------------------------

 Structure from the checkpoint file:  "/tmp/rdj3/g09-15973/Gau-16029.chk"
 ------------------------------------------------------------------
 1H-tetrazole CH2N4 casno=288948 state=1 config=1 method=21 basis=0
 ------------------------------------------------------------------
 Charge =  0 Multiplicity = 1

 SCF Done:  E(RHF) =  -256.771964706     A.U. after   12 cycles
 E2 =    -0.9222450935D+00 EUMP2 =    -0.25769420979962D+03
 Normal termination of Gaussian 09 at Mon Nov 25 16:58:43 2013.

                         Standard orientation:
 ---------------------------------------------------------------------
 Center     Atomic      Atomic             Coordinates (Angstroms)
 Number     Number       Type             X           Y           Z
 ---------------------------------------------------------------------
      1          6           0        1.071418    0.239147    0.000000
      2          7           0        0.000000    1.054873    0.000000
      3          7           0       -1.126772    0.317172    0.000000
      4          7           0       -0.721327   -0.940240    0.000000
      5          7           0        0.638593   -1.013231    0.000000
      6          1           0        2.099283    0.567956    0.000000
      7          1           0       -0.061248    2.067144    0.000000
 ---------------------------------------------------------------------

 SCF Done:  E(RHF) =  -256.832399814     A.U. after   14 cycles
 E2 =    -0.1182180475D+01 EUMP2 =    -0.25801458028868D+03

 The electronic state is 1-A'.
 Alpha  occ. eigenvalues --  -15.68761 -15.66783 -15.65351 -15.61005 -11.34152
 Alpha  occ. eigenvalues --   -1.48606  -1.25809  -1.18665  -0.90992  -0.88979
 Alpha  occ. eigenvalues --   -0.79788  -0.67626  -0.67486  -0.56893  -0.48808
 Alpha  occ. eigenvalues --   -0.47441  -0.45823  -0.41471
 Alpha virt. eigenvalues --    0.02414   0.04954   0.08676   0.09525   0.11409
 Alpha virt. eigenvalues --    0.12381   0.14882   0.16717   0.16787   0.18795
 Alpha virt. eigenvalues --    0.19567   0.20223   0.21763   0.22935   0.24412

 Mulliken charges:
               1
     1  C    0.099641
     2  N   -0.125129
     3  N   -0.046045
     4  N   -0.000486
     5  N   -0.315476
     6  H    0.161956
     7  H    0.225538
 Sum of Mulliken charges =   0.00000

 Dipole moment (field-independent basis, Debye):
    X=              2.7372    Y=              4.9712    Z=              0.0000  Tot=              5.6750
 Quadrupole moment (field-independent basis, Debye-Ang):
   XX=            -29.0719   YY=            -26.6986   ZZ=            -29.2786
   XY=              2.1254   XZ=              0.0000   YZ=              0.0000

 Normal termination of Gaussian 09 at Mon Nov 25 16:59:43 2013.
