 Gaussian 09, Revision D.01,
 Gaussian 09:  EM64L-G09RevD.01 24-Apr-2013

 ------
 #CBS-Q
 ------

 ------------------------------------------------------------------
 1H-tetrazole CH2N4 casno=288948 state=1 config=1 method=24 basis=0
 ------------------------------------------------------------------
 Symbolic Z-matrix:
 Charge =  0 Multiplicity = 1

 SCF Done:  E(RHF) =  -256.752971949     A.U. after   15 cycles
 SCF Done:  E(RHF) =  -256.752993596     A.U. after   10 cycles
 SCF Done:  E(RHF) =  -256.752995009     A.U. after    9 cycles
 SCF Done:  E(RHF) =  -256.752996364     A.U. after    9 cycles
 Optimization completed.
    -- Stationary point found.
 Normal termination of Gaussian 09 at Mon Nov 25 16:59:50 2013.

 ----------------------------------------------------------
 #N Geom=AllCheck Guess=TCheck SCRF=Check HF/6-31G(d') Freq
 ----------------------------------------------------------

 Structure from the checkpoint file:  "/tmp/rdj3/g09-15973/Gau-17207.chk"
 ------------------------------------------------------------------
 1H-tetrazole CH2N4 casno=288948 state=1 config=1 method=24 basis=0
 ------------------------------------------------------------------
 Charge =  0 Multiplicity = 1

 SCF Done:  E(RHF) =  -256.752996364     A.U. after    1 cycles

  Exact polarizability:  34.201   0.693  34.497   0.000   0.000  14.983
 Approx polarizability:  35.118   0.243  37.526   0.000   0.000  16.409

                      1                      2                      3
                     A"                     A"                     A"
 Frequencies --    630.0240               752.7600               817.6743
 Red. masses --      1.6454                 2.0614                 9.2831
 Frc consts  --      0.3848                 0.6882                 3.6568
 IR Inten    --    132.6048                 8.2475                 8.7135
 Raman Activ --      0.5782                 0.3246                 0.0822

                      4                      5                      6
                     A"                     A'                     A'
 Frequencies --   1003.3181              1092.9243              1114.8343
 Red. masses --      1.3769                 4.7240                 7.1917
 Frc consts  --      0.8167                 3.3246                 5.2662
 IR Inten    --      8.5968                 2.0979                 1.4586
 Raman Activ --      0.3549                 2.2648                 2.7048

                      7                      8                      9
                     A'                     A'                     A'
 Frequencies --   1180.0326              1202.9115              1260.4136
 Red. masses --      3.4047                 2.7889                 2.4572
 Frc consts  --      2.7933                 2.3776                 2.2999
 IR Inten    --     25.2492                33.7281                18.4788
 Raman Activ --      4.9167                 2.0832                 7.8119

                     10                     11                     12
                     A'                     A'                     A'
 Frequencies --   1425.5852              1550.5138              1628.5078
 Red. masses --      2.8029                 5.5951                 3.3202
 Frc consts  --      3.3562                 7.9251                 5.1879
 IR Inten    --      1.4874                39.4840                11.9852
 Raman Activ --     10.2878                16.5755                 7.5973

                     13                     14                     15
                     A'                     A'                     A'
 Frequencies --   1722.3117              3479.2797              3935.5733
 Red. masses --      3.6974                 1.1047                 1.0852
 Frc consts  --      6.4620                 7.8790                 9.9036
 IR Inten    --     25.4271                 0.3715               137.6560
 Raman Activ --      1.6390                62.6709                62.6765

 - Thermochemistry -
 -------------------
 Temperature   298.150 Kelvin.  Pressure   1.00000 Atm.
 Atom     1 has atomic number  6 and mass  12.00000

 Molecular mass:    70.02795 amu.
 Principal axes and moments of inertia in atomic units:
                           1         2         3
     Eigenvalues --   164.99617 167.95040 332.94657
           X            0.92226   0.38656   0.00000
           Y           -0.38656   0.92226   0.00000
           Z            0.00000   0.00000   1.00000
 This molecule is an asymmetric top.
 Rotational symmetry number  1.
 Rotational temperatures (Kelvin)      0.52494     0.51571     0.26014
 Rotational constants (GHZ):          10.93808    10.74568     5.42051
 Zero-point vibrational energy     136354.3 (Joules/Mol)
                                   32.58947 (Kcal/Mol)
 Vibrational temperatures:    906.46  1083.05  1176.45  1443.55  1572.47
          (Kelvin)           1604.00  1697.80  1730.72  1813.45  2051.10
                             2230.84  2343.06  2478.02  5005.90  5662.41

 Zero-point correction=                           0.051935 (Hartree/Particle)
 Thermal correction to Energy=                    0.055227
 Thermal correction to Enthalpy=                  0.056171
 Thermal correction to Gibbs Free Energy=         0.025949
 Sum of electronic and zero-point Energies=           -256.701062
 Sum of electronic and thermal Energies=              -256.697770
 Sum of electronic and thermal Enthalpies=            -256.696825
 Sum of electronic and thermal Free Energies=         -256.727047

                     E (Thermal)             CV                S
                      KCal/Mol        Cal/Mol-Kelvin    Cal/Mol-Kelvin
 Total                   34.655             10.042             63.608
 Electronic               0.000              0.000              0.000
 Translational            0.889              2.981             38.656
 Rotational               0.889              2.981             23.738
 Vibrational             32.878              4.081              1.214

 Optimization completed.
    -- Stationary point found.
 Normal termination of Gaussian 09 at Mon Nov 25 16:59:55 2013.

 ---------------------------------------------------------------
 #N Geom=AllCheck Guess=TCheck SCRF=Check MP2/6-31G(d') Opt=RCFC
 ---------------------------------------------------------------

 Structure from the checkpoint file:  "/tmp/rdj3/g09-15973/Gau-17207.chk"
 ------------------------------------------------------------------
 1H-tetrazole CH2N4 casno=288948 state=1 config=1 method=24 basis=0
 ------------------------------------------------------------------
 Charge =  0 Multiplicity = 1

 SCF Done:  E(RHF) =  -256.752996364     A.U. after    1 cycles
 E2 =    -0.7766759427D+00 EUMP2 =    -0.25752967230625D+03
 SCF Done:  E(RHF) =  -256.747374656     A.U. after   13 cycles
 E2 =    -0.7894074550D+00 EUMP2 =    -0.25753678211133D+03
 SCF Done:  E(RHF) =  -256.744161341     A.U. after   12 cycles
 E2 =    -0.7929590987D+00 EUMP2 =    -0.25753712044012D+03
 SCF Done:  E(RHF) =  -256.743992086     A.U. after   11 cycles
 E2 =    -0.7931374024D+00 EUMP2 =    -0.25753712948852D+03
 SCF Done:  E(RHF) =  -256.743981914     A.U. after   10 cycles
 E2 =    -0.7931482840D+00 EUMP2 =    -0.25753713019754D+03
 Optimization completed.
    -- Stationary point found.
 Normal termination of Gaussian 09 at Mon Nov 25 17:00:14 2013.

 ------------------------------------------------------------
 #N Geom=AllCheck Guess=TCheck SCRF=Check QCISD(T)/6-31+G(d')
 ------------------------------------------------------------

 Structure from the checkpoint file:  "/tmp/rdj3/g09-15973/Gau-17207.chk"
 ------------------------------------------------------------------
 1H-tetrazole CH2N4 casno=288948 state=1 config=1 method=24 basis=0
 ------------------------------------------------------------------
 Charge =  0 Multiplicity = 1

 SCF Done:  E(RHF) =  -256.751997433     A.U. after   14 cycles
 E2 =    -0.8023536894D+00 EUMP2 =    -0.25755435112269D+03
 Normal termination of Gaussian 09 at Mon Nov 25 17:01:06 2013.

 -----------------------------------------------------
 #N Geom=AllCheck Guess=TCheck SCRF=Check MP4SDQ/CBSB4
 -----------------------------------------------------

 Structure from the checkpoint file:  "/tmp/rdj3/g09-15973/Gau-17207.chk"
 ------------------------------------------------------------------
 1H-tetrazole CH2N4 casno=288948 state=1 config=1 method=24 basis=0
 ------------------------------------------------------------------
 Charge =  0 Multiplicity = 1

 SCF Done:  E(RHF) =  -256.757525155     A.U. after   13 cycles
 E2 =    -0.8131598006D+00 EUMP2 =    -0.25757068495595D+03
 Normal termination of Gaussian 09 at Mon Nov 25 17:01:14 2013.

 ----------------------------------------------------------------------
 #N Geom=AllCheck Guess=TCheck SCRF=Check MP2/CBSB3 CBSExtrap=(NMin=10,
 Pop)
 ----------------------------------------------------------------------

 Structure from the checkpoint file:  "/tmp/rdj3/g09-15973/Gau-17207.chk"
 ------------------------------------------------------------------
 1H-tetrazole CH2N4 casno=288948 state=1 config=1 method=24 basis=0
 ------------------------------------------------------------------
 Charge =  0 Multiplicity = 1

                         Standard orientation:
 ---------------------------------------------------------------------
 Center     Atomic      Atomic             Coordinates (Angstroms)
 Number     Number       Type             X           Y           Z
 ---------------------------------------------------------------------
      1          6           0        1.071459    0.235761    0.000000
      2          7           0        0.000000    1.056121    0.000000
      3          7           0       -1.123557    0.318693    0.000000
      4          7           0       -0.721982   -0.935984    0.000000
      5          7           0        0.635088   -1.016765    0.000000
      6          1           0        2.102646    0.564145    0.000000
      7          1           0       -0.058243    2.066833    0.000000
 ---------------------------------------------------------------------

 SCF Done:  E(RHF) =  -256.832223481     A.U. after   13 cycles
 E2 =    -0.9601867561D+00 EUMP2 =    -0.25779241023679D+03
 E2(CBS)=      -1.050665 CBS-Int=       0.028975 OIii=       6.848174

 The electronic state is 1-A'.
 Alpha  occ. eigenvalues --  -15.68795 -15.66743 -15.65274 -15.61069 -11.34227
 Alpha  occ. eigenvalues --   -1.48788  -1.25940  -1.18663  -0.91052  -0.88984
 Alpha  occ. eigenvalues --   -0.79772  -0.67676  -0.67555  -0.56896  -0.48740
 Alpha  occ. eigenvalues --   -0.47429  -0.45882  -0.41461
 Alpha virt. eigenvalues --    0.02416   0.04953   0.08679   0.09523   0.11411
 Alpha virt. eigenvalues --    0.12468   0.14886   0.16729   0.16784   0.18814
 Alpha virt. eigenvalues --    0.19567   0.20210   0.21770   0.22935   0.24410

 Mulliken charges:
               1
     1  C    0.103520
     2  N   -0.123771
     3  N   -0.044243
     4  N   -0.001344
     5  N   -0.313400
     6  H    0.156835
     7  H    0.222403
 Sum of Mulliken charges =   0.00000

 Dipole moment (field-independent basis, Debye):
    X=              2.7490    Y=              4.9669    Z=              0.0000  Tot=              5.6769
 Quadrupole moment (field-independent basis, Debye-Ang):
   XX=            -29.0711   YY=            -26.7041   ZZ=            -29.2754
   XY=              2.1091   XZ=              0.0000   YZ=              0.0000

 Normal termination of Gaussian 09 at Mon Nov 25 17:01:53 2013.
