 Gaussian 09, Revision D.01,
 Gaussian 09:  EM64L-G09RevD.01 24-Apr-2013

 -----------------------------------
 #MPW1PW91/cc-pVTZ opt=z-matrix freq
 -----------------------------------

 ------------------------------------------------------------------
 1H-tetrazole CH2N4 casno=288948 state=1 config=1 method=25 basis=6
 ------------------------------------------------------------------
 Symbolic Z-matrix:
 Charge =  0 Multiplicity = 1

 SCF Done:  E(RmPW1PW91) =  -258.279688381     A.U. after   14 cycles
 SCF Done:  E(RmPW1PW91) =  -258.281109448     A.U. after   11 cycles
 SCF Done:  E(RmPW1PW91) =  -258.281133036     A.U. after    9 cycles
 SCF Done:  E(RmPW1PW91) =  -258.281148187     A.U. after    9 cycles
 SCF Done:  E(RmPW1PW91) =  -258.281145734     A.U. after    9 cycles
 SCF Done:  E(RmPW1PW91) =  -258.281158520     A.U. after    4 cycles
 SCF Done:  E(RmPW1PW91) =  -258.281144515     A.U. after    9 cycles
 SCF Done:  E(RmPW1PW91) =  -258.281158733     A.U. after    6 cycles
 SCF Done:  E(RmPW1PW91) =  -258.281160777     A.U. after    8 cycles
 SCF Done:  E(RmPW1PW91) =  -258.281049182     A.U. after   10 cycles
 SCF Done:  E(RmPW1PW91) =  -258.281161663     A.U. after    7 cycles
 SCF Done:  E(RmPW1PW91) =  -258.281148482     A.U. after    9 cycles
 SCF Done:  E(RmPW1PW91) =  -258.281162137     A.U. after    7 cycles
 SCF Done:  E(RmPW1PW91) =  -258.281162119     A.U. after    7 cycles
 Optimization completed.
    -- Stationary point found.
 Normal termination of Gaussian 09 at Mon Nov 25 17:56:59 2013.

 ----------------------------------------------------------------------
 #N Geom=AllCheck Guess=TCheck SCRF=Check GenChk RmPW1PW91/CC-pVTZ Freq
 ----------------------------------------------------------------------

 Structure from the checkpoint file:  "/tmp/rdj3/g09-15973/Gau-4981.chk"
 ------------------------------------------------------------------
 1H-tetrazole CH2N4 casno=288948 state=1 config=1 method=25 basis=6
 ------------------------------------------------------------------
 Charge =  0 Multiplicity = 1

                         Standard orientation:
 ---------------------------------------------------------------------
 Center     Atomic      Atomic             Coordinates (Angstroms)
 Number     Number       Type             X           Y           Z
 ---------------------------------------------------------------------
      1          6           0        1.060118    0.231776    0.000000
      2          7           0        0.000000    1.046140    0.000000
      3          7           0       -1.108598    0.300951    0.000000
      4          7           0       -0.718748   -0.916672    0.000000
      5          7           0        0.629022   -1.001029    0.000000
      6          1           0        2.085724    0.554916    0.000000
      7          1           0       -0.058163    2.048702    0.000000
 ---------------------------------------------------------------------

 SCF Done:  E(RmPW1PW91) =  -258.281162119     A.U. after    1 cycles

 The electronic state is 1-A'.
 Alpha  occ. eigenvalues --  -14.51403 -14.47816 -14.46114 -14.43164 -10.32924
 Alpha  occ. eigenvalues --   -1.18874  -0.98367  -0.92845  -0.70798  -0.69437
 Alpha  occ. eigenvalues --   -0.62287  -0.52668  -0.52117  -0.40338  -0.35361
 Alpha  occ. eigenvalues --   -0.32956  -0.32450  -0.31036
 Alpha virt. eigenvalues --   -0.01889   0.01722   0.02325   0.06841   0.15605
 Alpha virt. eigenvalues --    0.17646   0.18257   0.25591   0.28660   0.30082
 Alpha virt. eigenvalues --    0.37382   0.37954   0.40027   0.42388   0.43780

 Mulliken charges:
               1
     1  C    0.002511
     2  N    0.017017
     3  N   -0.084129
     4  N   -0.074735
     5  N   -0.158301
     6  H    0.126395
     7  H    0.171242
 Sum of Mulliken charges =   0.00000

 Dipole moment (field-independent basis, Debye):
    X=              2.4546    Y=              4.7111    Z=              0.0000  Tot=              5.3122
 Quadrupole moment (field-independent basis, Debye-Ang):
   XX=            -28.6974   YY=            -26.1436   ZZ=            -28.1526
   XY=              1.8090   XZ=              0.0000   YZ=              0.0000

  Exact polarizability:  40.854   0.806  40.149   0.000   0.000  20.737
 Approx polarizability:  66.088   0.558  69.185   0.000   0.000  31.047

                      1                      2                      3
                     A"                     A"                     A"
 Frequencies --    607.6446               703.9407               758.0007
 Red. masses --      1.6843                 2.0164                 8.2644
 Frc consts  --      0.3664                 0.5887                 2.7977
 IR Inten    --     79.4234                 6.2679                 8.3116

                      4                      5                      6
                     A"                     A'                     A'
 Frequencies --    879.7807               993.1343              1029.0523
 Red. masses --      1.3943                 4.2857                 5.8863
 Frc consts  --      0.6358                 2.4905                 3.6726
 IR Inten    --     17.1214                 3.5764                 0.9367

                      7                      8                      9
                     A'                     A'                     A'
 Frequencies --   1082.0725              1093.1272              1161.5220
 Red. masses --      3.9846                 3.5003                 2.0667
 Frc consts  --      2.7488                 2.4643                 1.6428
 IR Inten    --     18.5997                28.5144                14.0717

                     10                     11                     12
                     A'                     A'                     A'
 Frequencies --   1287.5651              1332.9610              1482.1830
 Red. masses --      2.4540                10.4085                 3.3074
 Frc consts  --      2.3970                10.8962                 4.2809
 IR Inten    --      1.6304                14.1703                 8.3388

                     13                     14                     15
                     A'                     A'                     A'
 Frequencies --   1533.5772              3300.8705              3691.9320
 Red. masses --      3.5188                 1.1016                 1.0838
 Frc consts  --      4.8759                 7.0715                 8.7036
 IR Inten    --     16.1715                 1.3911                94.1748

 - Thermochemistry -
 -------------------
 Temperature   298.150 Kelvin.  Pressure   1.00000 Atm.
 Atom     1 has atomic number  6 and mass  12.00000

 Molecular mass:    70.02795 amu.
 Principal axes and moments of inertia in atomic units:
                           1         2         3
     Eigenvalues --   168.77883 171.47784 340.25667
           X            0.84307   0.53781   0.00000
           Y           -0.53781   0.84307   0.00000
           Z            0.00000   0.00000   1.00000
 This molecule is an asymmetric top.
 Rotational symmetry number  1.
 Rotational temperatures (Kelvin)      0.51318     0.50510     0.25455
 Rotational constants (GHZ):          10.69294    10.52463     5.30406
 Zero-point vibrational energy     125233.2 (Joules/Mol)
                                   29.93146 (Kcal/Mol)
 Warning -- explicit consideration of   1 degrees of freedom as
           vibrations may cause significant error
 Vibrational temperatures:    874.26  1012.81  1090.59  1265.81  1428.90
          (Kelvin)           1480.57  1556.86  1572.76  1671.17  1852.52
                             1917.83  2132.53  2206.47  4749.21  5311.86

 Zero-point correction=                           0.047699 (Hartree/Particle)
 Thermal correction to Energy=                    0.051122
 Thermal correction to Enthalpy=                  0.052066
 Thermal correction to Gibbs Free Energy=         0.021645
 Sum of electronic and zero-point Energies=           -258.233463
 Sum of electronic and thermal Energies=              -258.230040
 Sum of electronic and thermal Enthalpies=            -258.229096
 Sum of electronic and thermal Free Energies=         -258.259517

                     E (Thermal)             CV                S
                      KCal/Mol        Cal/Mol-Kelvin    Cal/Mol-Kelvin
 Total                   32.079             11.027             64.027
 Electronic               0.000              0.000              0.000
 Translational            0.889              2.981             38.656
 Rotational               0.889              2.981             23.803
 Vibrational             30.302              5.065              1.568
 Vibration     1          0.966              1.016              0.437

 Normal termination of Gaussian 09 at Mon Nov 25 17:58:15 2013.
