 Gaussian 09, Revision D.01,
 Gaussian 09:  EM64L-G09RevD.01 24-Apr-2013

 ------------------------------
 #MPW1PW91/aug-cc-pVDZ opt freq
 ------------------------------

 -------------------------------------------------------------------
 1H-tetrazole CH2N4 casno=288948 state=1 config=1 method=25 basis=17
 -------------------------------------------------------------------
 Symbolic Z-matrix:
 Charge =  0 Multiplicity = 1

 SCF Done:  E(RmPW1PW91) =  -258.230520929     A.U. after   12 cycles
 SCF Done:  E(RmPW1PW91) =  -258.233356605     A.U. after   11 cycles
 SCF Done:  E(RmPW1PW91) =  -258.233415887     A.U. after   10 cycles
 SCF Done:  E(RmPW1PW91) =  -258.233432659     A.U. after   10 cycles
 SCF Done:  E(RmPW1PW91) =  -258.233437446     A.U. after    9 cycles
 Optimization completed.
    -- Stationary point found.
 Normal termination of Gaussian 09 at Mon Dec 16 15:33:35 2013.

 ----------------------------------------------------------------------
 #N Geom=AllCheck Guess=TCheck SCRF=Check GenChk RmPW1PW91/Aug-CC-pVDZ
 Freq
 ----------------------------------------------------------------------

 Structure from the checkpoint file:  "/tmp/rdj3/g09-26267/Gau-26323.chk"
 -------------------------------------------------------------------
 1H-tetrazole CH2N4 casno=288948 state=1 config=1 method=25 basis=17
 -------------------------------------------------------------------
 Charge =  0 Multiplicity = 1

                         Standard orientation:
 ---------------------------------------------------------------------
 Center     Atomic      Atomic             Coordinates (Angstroms)
 Number     Number       Type             X           Y           Z
 ---------------------------------------------------------------------
      1          6           0        1.064625    0.233128    0.000000
      2          7           0        0.000000    1.049839    0.000000
      3          7           0       -1.113392    0.304638    0.000000
      4          7           0       -0.720656   -0.921143    0.000000
      5          7           0        0.630290   -1.006796    0.000000
      6          1           0        2.096581    0.558382    0.000000
      7          1           0       -0.058028    2.057087    0.000000
 ---------------------------------------------------------------------

 SCF Done:  E(RmPW1PW91) =  -258.233437446     A.U. after    1 cycles

 The electronic state is 1-A'.
 Alpha  occ. eigenvalues --  -14.53076 -14.49605 -14.47980 -14.45102 -10.34521
 Alpha  occ. eigenvalues --   -1.19215  -0.98920  -0.93297  -0.71244  -0.69852
 Alpha  occ. eigenvalues --   -0.62509  -0.52748  -0.52420  -0.40751  -0.35675
 Alpha  occ. eigenvalues --   -0.33197  -0.33085  -0.31648
 Alpha virt. eigenvalues --   -0.02728  -0.02341   0.00520   0.00955   0.03752
 Alpha virt. eigenvalues --    0.04612   0.05995   0.07357   0.09210   0.09265
 Alpha virt. eigenvalues --    0.11071   0.11328   0.12698   0.13954   0.14977

 Mulliken charges:
               1
     1  C    0.855084
     2  N   -0.023303
     3  N   -0.100388
     4  N   -0.255906
     5  N   -0.301409
     6  H   -0.139758
     7  H   -0.034321
 Sum of Mulliken charges =   0.00000

 Dipole moment (field-independent basis, Debye):
    X=              2.5402    Y=              4.7629    Z=              0.0000  Tot=              5.3980
 Quadrupole moment (field-independent basis, Debye-Ang):
   XX=            -29.0245   YY=            -26.5241   ZZ=            -28.7432
   XY=              1.8752   XZ=              0.0000   YZ=              0.0000

  Exact polarizability:  45.146   0.515  44.577   0.000   0.000  26.062
 Approx polarizability:  70.823   0.337  73.986   0.000   0.000  37.266

                      1                      2                      3
                     A"                     A"                     A"
 Frequencies --    610.5550               699.6724               751.3415
 Red. masses --      1.7664                 1.9047                 8.5370
 Frc consts  --      0.3880                 0.5494                 2.8394
 IR Inten    --     78.5455                 8.6175                 7.5211

                      4                      5                      6
                     A"                     A'                     A'
 Frequencies --    865.4777               989.5420              1024.3721
 Red. masses --      1.3900                 3.9351                 5.7129
 Frc consts  --      0.6135                 2.2703                 3.5320
 IR Inten    --     18.4996                 2.6790                 1.5230

                      7                      8                      9
                     A'                     A'                     A'
 Frequencies --   1094.0257              1103.3615              1157.3074
 Red. masses --      2.8089                 4.4561                 2.1261
 Frc consts  --      1.9808                 3.1962                 1.6778
 IR Inten    --     27.8094                21.6070                10.0402

                     10                     11                     12
                     A'                     A'                     A'
 Frequencies --   1286.6059              1333.8174              1486.7073
 Red. masses --      2.6610                10.5391                 3.5477
 Frc consts  --      2.5953                11.0471                 4.6201
 IR Inten    --      1.1236                13.3016                 8.6551

                     13                     14                     15
                     A'                     A'                     A'
 Frequencies --   1530.3218              3314.7425              3685.5637
 Red. masses --      3.5409                 1.1022                 1.0845
 Frc consts  --      4.8857                 7.1352                 8.6791
 IR Inten    --     16.1210                 1.8476                96.3359

 - Thermochemistry -
 -------------------
 Temperature   298.150 Kelvin.  Pressure   1.00000 Atm.
 Atom     1 has atomic number  6 and mass  12.00000

 Molecular mass:    70.02795 amu.
 Principal axes and moments of inertia in atomic units:
                           1         2         3
     Eigenvalues --   170.20813 173.02079 343.22892
           X            0.80230   0.59692   0.00000
           Y           -0.59692   0.80230   0.00000
           Z            0.00000   0.00000   1.00000
 This molecule is an asymmetric top.
 Rotational symmetry number  1.
 Rotational temperatures (Kelvin)      0.50887     0.50060     0.25235
 Rotational constants (GHZ):          10.60314    10.43078     5.25813
 Zero-point vibrational energy     125209.6 (Joules/Mol)
                                   29.92582 (Kcal/Mol)
 Warning -- explicit consideration of   1 degrees of freedom as
           vibrations may cause significant error
 Vibrational temperatures:    878.45  1006.67  1081.01  1245.23  1423.73
          (Kelvin)           1473.84  1574.06  1587.49  1665.11  1851.14
                             1919.06  2139.04  2201.79  4769.17  5302.70

 Zero-point correction=                           0.047690 (Hartree/Particle)
 Thermal correction to Energy=                    0.051118
 Thermal correction to Enthalpy=                  0.052062
 Thermal correction to Gibbs Free Energy=         0.021622
 Sum of electronic and zero-point Energies=           -258.185748
 Sum of electronic and thermal Energies=              -258.182320
 Sum of electronic and thermal Enthalpies=            -258.181376
 Sum of electronic and thermal Free Energies=         -258.211816

                     E (Thermal)             CV                S
                      KCal/Mol        Cal/Mol-Kelvin    Cal/Mol-Kelvin
 Total                   32.077             11.054             64.066
 Electronic               0.000              0.000              0.000
 Translational            0.889              2.981             38.656
 Rotational               0.889              2.981             23.829
 Vibrational             30.299              5.092              1.582
 Vibration     1          0.970              1.009              0.432

 Optimization completed.
    -- Stationary point found.
 Normal termination of Gaussian 09 at Mon Dec 16 15:33:56 2013.
