 Gaussian 09, Revision D.01,
 Gaussian 09:  EM64L-G09RevD.01 24-Apr-2013

 ---------------------------------------
 #mPW1PW91/6-311G(d,p) opt=z-matrix freq
 ---------------------------------------

 -------------------------------------------------------------------
 1H-tetrazole CH2N4 casno=288948 state=1 config=1 method=25 basis=21
 -------------------------------------------------------------------
 Symbolic Z-matrix:
 Charge =  0 Multiplicity = 1

 SCF Done:  E(RmPW1PW91) =  -258.249833080     A.U. after   14 cycles
 SCF Done:  E(RmPW1PW91) =  -258.251660789     A.U. after   12 cycles
 SCF Done:  E(RmPW1PW91) =  -258.251678048     A.U. after   10 cycles
 SCF Done:  E(RmPW1PW91) =  -258.251694152     A.U. after    9 cycles
 SCF Done:  E(RmPW1PW91) =  -258.251705468     A.U. after    9 cycles
 SCF Done:  E(RmPW1PW91) =  -258.251344955     A.U. after   11 cycles
 SCF Done:  E(RmPW1PW91) =  -258.251707131     A.U. after    7 cycles
 SCF Done:  E(RmPW1PW91) =  -258.251706062     A.U. after    9 cycles
 SCF Done:  E(RmPW1PW91) =  -258.251708037     A.U. after    7 cycles
 SCF Done:  E(RmPW1PW91) =  -258.251701746     A.U. after    9 cycles
 SCF Done:  E(RmPW1PW91) =  -258.251708674     A.U. after    7 cycles
 SCF Done:  E(RmPW1PW91) =  -258.251707491     A.U. after    9 cycles
 SCF Done:  E(RmPW1PW91) =  -258.251708762     A.U. after    4 cycles
 SCF Done:  E(RmPW1PW91) =  -258.251708640     A.U. after    8 cycles
 SCF Done:  E(RmPW1PW91) =  -258.251709474     A.U. after    8 cycles
 SCF Done:  E(RmPW1PW91) =  -258.251708752     A.U. after    9 cycles
 SCF Done:  E(RmPW1PW91) =  -258.251709565     A.U. after    5 cycles
 SCF Done:  E(RmPW1PW91) =  -258.251709501     A.U. after    7 cycles
 Optimization completed.
    -- Stationary point found.
 Normal termination of Gaussian 09 at Mon Nov 25 17:48:33 2013.

 ----------------------------------------------------------------------
 #N Geom=AllCheck Guess=TCheck SCRF=Check GenChk RmPW1PW91/6-311G(d,p)
 Freq
 ----------------------------------------------------------------------

 Structure from the checkpoint file:  "/tmp/rdj3/g09-15973/Gau-27078.chk"
 -------------------------------------------------------------------
 1H-tetrazole CH2N4 casno=288948 state=1 config=1 method=25 basis=21
 -------------------------------------------------------------------
 Charge =  0 Multiplicity = 1

                         Standard orientation:
 ---------------------------------------------------------------------
 Center     Atomic      Atomic             Coordinates (Angstroms)
 Number     Number       Type             X           Y           Z
 ---------------------------------------------------------------------
      1          6           0        1.062586    0.231323    0.000000
      2          7           0        0.000000    1.047989    0.000000
      3          7           0       -1.111169    0.301320    0.000000
      4          7           0       -0.719454   -0.917618    0.000000
      5          7           0        0.629925   -1.002329    0.000000
      6          1           0        2.089455    0.554241    0.000000
      7          1           0       -0.060092    2.052285    0.000000
 ---------------------------------------------------------------------

 SCF Done:  E(RmPW1PW91) =  -258.251709501     A.U. after    1 cycles

 The electronic state is 1-A'.
 Alpha  occ. eigenvalues --  -14.50959 -14.47198 -14.45383 -14.42523 -10.32743
 Alpha  occ. eigenvalues --   -1.19144  -0.98555  -0.93104  -0.70959  -0.69552
 Alpha  occ. eigenvalues --   -0.62424  -0.52578  -0.52280  -0.40277  -0.35356
 Alpha  occ. eigenvalues --   -0.33019  -0.32421  -0.30921
 Alpha virt. eigenvalues --   -0.01916   0.01900   0.02838   0.07175   0.17816
 Alpha virt. eigenvalues --    0.19234   0.22709   0.28534   0.33479   0.39881
 Alpha virt. eigenvalues --    0.41684   0.44212   0.50097   0.55698   0.56856

 Mulliken charges:
               1
     1  C    0.245711
     2  N   -0.289852
     3  N   -0.031401
     4  N   -0.086286
     5  N   -0.253389
     6  H    0.153414
     7  H    0.261803
 Sum of Mulliken charges =   0.00000

 Dipole moment (field-independent basis, Debye):
    X=              2.5203    Y=              4.8047    Z=              0.0000  Tot=              5.4256
 Quadrupole moment (field-independent basis, Debye-Ang):
   XX=            -28.7318   YY=            -26.2795   ZZ=            -28.1797
   XY=              1.8134   XZ=              0.0000   YZ=              0.0000

  Exact polarizability:  38.492   0.950  37.928   0.000   0.000  17.704
 Approx polarizability:  62.977   0.494  66.569   0.000   0.000  25.738

                      1                      2                      3
                     A"                     A"                     A"
 Frequencies --    626.5631               706.7680               754.2555
 Red. masses --      1.9770                 1.7811                 7.3741
 Frc consts  --      0.4573                 0.5242                 2.4717
 IR Inten    --     80.9764                14.7594                10.5461

                      4                      5                      6
                     A"                     A'                     A'
 Frequencies --    878.6092               994.4828              1030.5340
 Red. masses --      1.3793                 4.1411                 5.9619
 Frc consts  --      0.6274                 2.4130                 3.7304
 IR Inten    --     17.1704                 4.1732                 0.8784

                      7                      8                      9
                     A'                     A'                     A'
 Frequencies --   1084.6605              1099.5135              1162.8612
 Red. masses --      3.8196                 3.5811                 2.0944
 Frc consts  --      2.6476                 2.5507                 1.6687
 IR Inten    --     21.1752                28.2640                13.6951

                     10                     11                     12
                     A'                     A'                     A'
 Frequencies --   1290.3144              1338.0879              1485.6193
 Red. masses --      2.5291                 9.6502                 3.4232
 Frc consts  --      2.4809                10.1802                 4.4514
 IR Inten    --      1.2123                17.9894                 8.8785

                     13                     14                     15
                     A'                     A'                     A'
 Frequencies --   1539.2127              3308.3901              3696.0904
 Red. masses --      3.3882                 1.1016                 1.0839
 Frc consts  --      4.7295                 7.1041                 8.7245
 IR Inten    --     16.8533                 1.6694               100.3171

 - Thermochemistry -
 -------------------
 Temperature   298.150 Kelvin.  Pressure   1.00000 Atm.
 Atom     1 has atomic number  6 and mass  12.00000

 Molecular mass:    70.02795 amu.
 Principal axes and moments of inertia in atomic units:
                           1         2         3
     Eigenvalues --   169.22097 172.17175 341.39272
           X            0.85363   0.52088   0.00000
           Y           -0.52088   0.85363   0.00000
           Z            0.00000   0.00000   1.00000
 This molecule is an asymmetric top.
 Rotational symmetry number  1.
 Rotational temperatures (Kelvin)      0.51184     0.50307     0.25371
 Rotational constants (GHZ):          10.66500    10.48221     5.28641
 Zero-point vibrational energy     125583.7 (Joules/Mol)
                                   30.01524 (Kcal/Mol)
 Vibrational temperatures:    901.48  1016.88  1085.20  1264.12  1430.84
          (Kelvin)           1482.71  1560.58  1581.95  1673.10  1856.47
                             1925.21  2137.47  2214.58  4760.03  5317.84

 Zero-point correction=                           0.047832 (Hartree/Particle)
 Thermal correction to Energy=                    0.051244
 Thermal correction to Enthalpy=                  0.052188
 Thermal correction to Gibbs Free Energy=         0.021778
 Sum of electronic and zero-point Energies=           -258.203877
 Sum of electronic and thermal Energies=              -258.200466
 Sum of electronic and thermal Enthalpies=            -258.199521
 Sum of electronic and thermal Free Energies=         -258.229931

                     E (Thermal)             CV                S
                      KCal/Mol        Cal/Mol-Kelvin    Cal/Mol-Kelvin
 Total                   32.156             10.973             64.002
 Electronic               0.000              0.000              0.000
 Translational            0.889              2.981             38.656
 Rotational               0.889              2.981             23.813
 Vibrational             30.379              5.011              1.534

 Normal termination of Gaussian 09 at Mon Nov 25 17:48:46 2013.
