 Gaussian 09, Revision D.01,
 Gaussian 09:  EM64L-G09RevD.01 24-Apr-2013

 ----------------------------------
 #mPW1PW91/STO-3G opt=z-matrix freq
 ----------------------------------

 -------------------------------------------------------------------
 1H-tetrazole CH2N4 casno=288948 state=1 config=1 method=25 basis=20
 -------------------------------------------------------------------
 Symbolic Z-matrix:
 Charge =  0 Multiplicity = 1

 SCF Done:  E(RmPW1PW91) =  -254.826487137     A.U. after   14 cycles
 SCF Done:  E(RmPW1PW91) =  -254.871284267     A.U. after   13 cycles
 SCF Done:  E(RmPW1PW91) =  -254.873231299     A.U. after   13 cycles
 SCF Done:  E(RmPW1PW91) =  -254.871505903     A.U. after   13 cycles
 SCF Done:  E(RmPW1PW91) =  -254.873779050     A.U. after   11 cycles
 SCF Done:  E(RmPW1PW91) =  -254.873872670     A.U. after   12 cycles
 SCF Done:  E(RmPW1PW91) =  -254.873459200     A.U. after   13 cycles
 SCF Done:  E(RmPW1PW91) =  -254.873891535     A.U. after    9 cycles
 SCF Done:  E(RmPW1PW91) =  -254.873895467     A.U. after    9 cycles
 SCF Done:  E(RmPW1PW91) =  -254.873896133     A.U. after    8 cycles
 SCF Done:  E(RmPW1PW91) =  -254.873518553     A.U. after   13 cycles
 SCF Done:  E(RmPW1PW91) =  -254.873896271     A.U. after    8 cycles
 SCF Done:  E(RmPW1PW91) =  -254.873896261     A.U. after    7 cycles
 SCF Done:  E(RmPW1PW91) =  -254.873895290     A.U. after   11 cycles
 SCF Done:  E(RmPW1PW91) =  -254.873896138     A.U. after    6 cycles
 SCF Done:  E(RmPW1PW91) =  -254.873896286     A.U. after    7 cycles
 SCF Done:  E(RmPW1PW91) =  -254.873896318     A.U. after    7 cycles
 SCF Done:  E(RmPW1PW91) =  -254.873896305     A.U. after    6 cycles
 SCF Done:  E(RmPW1PW91) =  -254.873896320     A.U. after    6 cycles
 Optimization completed.
    -- Stationary point found.
 Normal termination of Gaussian 09 at Mon Nov 25 17:47:36 2013.

 ---------------------------------------------------------------------
 #N Geom=AllCheck Guess=TCheck SCRF=Check GenChk RmPW1PW91/STO-3G Freq
 ---------------------------------------------------------------------

 Structure from the checkpoint file:  "/tmp/rdj3/g09-15973/Gau-25417.chk"
 -------------------------------------------------------------------
 1H-tetrazole CH2N4 casno=288948 state=1 config=1 method=25 basis=20
 -------------------------------------------------------------------
 Charge =  0 Multiplicity = 1

                         Standard orientation:
 ---------------------------------------------------------------------
 Center     Atomic      Atomic             Coordinates (Angstroms)
 Number     Number       Type             X           Y           Z
 ---------------------------------------------------------------------
      1          6           0        1.098892    0.254068    0.000000
      2          7           0        0.000000    1.094918    0.000000
      3          7           0       -1.187993    0.313887    0.000000
      4          7           0       -0.748776   -0.978079    0.000000
      5          7           0        0.695166   -1.042069    0.000000
      6          1           0        2.133492    0.615135    0.000000
      7          1           0       -0.035622    2.139864    0.000000
 ---------------------------------------------------------------------

 SCF Done:  E(RmPW1PW91) =  -254.873896320     A.U. after    1 cycles

 The electronic state is 1-A'.
 Alpha  occ. eigenvalues --  -14.36067 -14.29289 -14.26411 -14.24094 -10.16807
 Alpha  occ. eigenvalues --   -1.09006  -0.90906  -0.86386  -0.64153  -0.62176
 Alpha  occ. eigenvalues --   -0.55516  -0.44992  -0.42942  -0.31080  -0.26336
 Alpha  occ. eigenvalues --   -0.25187  -0.24516  -0.22936
 Alpha virt. eigenvalues --    0.04887   0.09424   0.23043   0.25719   0.35516
 Alpha virt. eigenvalues --    0.36795   0.38804   0.53146   0.58984

 Mulliken charges:
               1
     1  C    0.066980
     2  N   -0.199329
     3  N   -0.044707
     4  N   -0.065570
     5  N   -0.153649
     6  H    0.131595
     7  H    0.264678
 Sum of Mulliken charges =   0.00000

 Dipole moment (field-independent basis, Debye):
    X=              2.1481    Y=              4.4415    Z=              0.0000  Tot=              4.9337
 Quadrupole moment (field-independent basis, Debye-Ang):
   XX=            -27.4063   YY=            -24.6801   ZZ=            -25.9124
   XY=              1.7732   XZ=              0.0000   YZ=              0.0000

  Exact polarizability:  24.456   1.193  25.308   0.000   0.000   6.167
 Approx polarizability:  52.188  -0.916  60.474   0.000   0.000   7.574

                      1                      2                      3
                     A"                     A"                     A"
 Frequencies --    489.7269               649.2153               665.3598
 Red. masses --      1.9068                 2.0464                 7.8194
 Frc consts  --      0.2694                 0.5082                 2.0396
 IR Inten    --     83.7545                15.4174                 8.4822

                      4                      5                      6
                     A"                     A'                     A'
 Frequencies --    849.3093               931.6271               973.8109
 Red. masses --      1.2618                 5.6583                 5.9035
 Frc consts  --      0.5363                 2.8935                 3.2984
 IR Inten    --     11.1272                 1.0016                 0.2311

                      7                      8                      9
                     A'                     A'                     A'
 Frequencies --   1046.5271              1056.5435              1146.4062
 Red. masses --      4.1611                 3.5665                 1.5116
 Frc consts  --      2.6851                 2.3456                 1.1704
 IR Inten    --     17.5105                17.7367                 7.6717

                     10                     11                     12
                     A'                     A'                     A'
 Frequencies --   1251.0804              1269.0562              1488.2794
 Red. masses --      9.6040                 2.9905                 3.7446
 Frc consts  --      8.8567                 2.8376                 4.8868
 IR Inten    --      0.1062                 1.6593                14.1486

                     13                     14                     15
                     A'                     A'                     A'
 Frequencies --   1526.9374              3543.2135              3780.3408
 Red. masses --      3.5041                 1.1016                 1.0867
 Frc consts  --      4.8136                 8.1483                 9.1502
 IR Inten    --     32.1411                39.1269                92.4845

 - Thermochemistry -
 -------------------
 Temperature   298.150 Kelvin.  Pressure   1.00000 Atm.
 Atom     1 has atomic number  6 and mass  12.00000

 Molecular mass:    70.02795 amu.
 Principal axes and moments of inertia in atomic units:
                           1         2         3
     Eigenvalues --   186.22773 191.70324 377.93097
           X            0.90265   0.43037   0.00000
           Y           -0.43037   0.90265   0.00000
           Z            0.00000   0.00000   1.00000
 This molecule is an asymmetric top.
 Rotational symmetry number  1.
 Rotational temperatures (Kelvin)      0.46510     0.45181     0.22918
 Rotational constants (GHZ):           9.69104     9.41424     4.77532
 Zero-point vibrational energy     123618.7 (Joules/Mol)
                                   29.54558 (Kcal/Mol)
 Warning -- explicit consideration of   1 degrees of freedom as
           vibrations may cause significant error
 Vibrational temperatures:    704.61   934.07   957.30  1221.97  1340.40
          (Kelvin)           1401.10  1505.72  1520.13  1649.42  1800.02
                             1825.89  2141.30  2196.92  5097.89  5439.06

 Zero-point correction=                           0.047084 (Hartree/Particle)
 Thermal correction to Energy=                    0.050681
 Thermal correction to Enthalpy=                  0.051626
 Thermal correction to Gibbs Free Energy=         0.020805
 Sum of electronic and zero-point Energies=           -254.826812
 Sum of electronic and thermal Energies=              -254.823215
 Sum of electronic and thermal Enthalpies=            -254.822271
 Sum of electronic and thermal Free Energies=         -254.853091

                     E (Thermal)             CV                S
                      KCal/Mol        Cal/Mol-Kelvin    Cal/Mol-Kelvin
 Total                   31.803             11.874             64.867
 Electronic               0.000              0.000              0.000
 Translational            0.889              2.981             38.656
 Rotational               0.889              2.981             24.116
 Vibrational             30.026              5.912              2.095
 Vibration     1          0.846              1.273              0.684

 Normal termination of Gaussian 09 at Mon Nov 25 17:47:39 2013.
