 Gaussian 09, Revision D.01,
 Gaussian 09:  EM64L-G09RevD.01 24-Apr-2013

 -----------------------------------
 #MPW1PW91/cc-pVDZ opt=z-matrix freq
 -----------------------------------

 ------------------------------------------------------------------
 1H-tetrazole CH2N4 casno=288948 state=1 config=1 method=25 basis=5
 ------------------------------------------------------------------
 Symbolic Z-matrix:
 Charge =  0 Multiplicity = 1

 SCF Done:  E(RmPW1PW91) =  -258.207444797     A.U. after   14 cycles
 SCF Done:  E(RmPW1PW91) =  -258.211915127     A.U. after   13 cycles
 SCF Done:  E(RmPW1PW91) =  -258.212617280     A.U. after   12 cycles
 SCF Done:  E(RmPW1PW91) =  -258.211858723     A.U. after   12 cycles
 SCF Done:  E(RmPW1PW91) =  -258.212755730     A.U. after   11 cycles
 SCF Done:  E(RmPW1PW91) =  -258.211668068     A.U. after   11 cycles
 SCF Done:  E(RmPW1PW91) =  -258.213074681     A.U. after   10 cycles
 SCF Done:  E(RmPW1PW91) =  -258.213322066     A.U. after   12 cycles
 SCF Done:  E(RmPW1PW91) =  -258.213377439     A.U. after   11 cycles
 SCF Done:  E(RmPW1PW91) =  -258.212168509     A.U. after   11 cycles
 SCF Done:  E(RmPW1PW91) =  -258.213079601     A.U. after   12 cycles
 SCF Done:  E(RmPW1PW91) =  -258.213434168     A.U. after    9 cycles
 SCF Done:  E(RmPW1PW91) =  -258.213434858     A.U. after    8 cycles
 SCF Done:  E(RmPW1PW91) =  -258.213433640     A.U. after   10 cycles
 SCF Done:  E(RmPW1PW91) =  -258.213435023     A.U. after    5 cycles
 SCF Done:  E(RmPW1PW91) =  -258.213434999     A.U. after    7 cycles
 SCF Done:  E(RmPW1PW91) =  -258.213435077     A.U. after    7 cycles
 SCF Done:  E(RmPW1PW91) =  -258.213433985     A.U. after    9 cycles
 SCF Done:  E(RmPW1PW91) =  -258.213435060     A.U. after    7 cycles
 Optimization completed.
    -- Stationary point found.
 Normal termination of Gaussian 09 at Mon Dec 16 13:51:48 2013.

 ----------------------------------------------------------------------
 #N Geom=AllCheck Guess=TCheck SCRF=Check GenChk RmPW1PW91/CC-pVDZ Freq
 ----------------------------------------------------------------------

 Structure from the checkpoint file:  "/tmp/rdj3/g09-26782/Gau-26838.chk"
 ------------------------------------------------------------------
 1H-tetrazole CH2N4 casno=288948 state=1 config=1 method=25 basis=5
 ------------------------------------------------------------------
 Charge =  0 Multiplicity = 1

                         Standard orientation:
 ---------------------------------------------------------------------
 Center     Atomic      Atomic             Coordinates (Angstroms)
 Number     Number       Type             X           Y           Z
 ---------------------------------------------------------------------
      1          6           0        1.064033    0.230615    0.000000
      2          7           0        0.000000    1.049899    0.000000
      3          7           0       -1.112206    0.304585    0.000000
      4          7           0       -0.720514   -0.918535    0.000000
      5          7           0        0.628886   -1.007391    0.000000
      6          1           0        2.098412    0.556562    0.000000
      7          1           0       -0.055769    2.059849    0.000000
 ---------------------------------------------------------------------

 SCF Done:  E(RmPW1PW91) =  -258.213435060     A.U. after    1 cycles

 The electronic state is 1-A'.
 Alpha  occ. eigenvalues --  -14.52165 -14.48154 -14.46354 -14.43683 -10.33805
 Alpha  occ. eigenvalues --   -1.18447  -0.98054  -0.92444  -0.70338  -0.68949
 Alpha  occ. eigenvalues --   -0.61650  -0.51952  -0.51582  -0.39642  -0.34779
 Alpha  occ. eigenvalues --   -0.32351  -0.31858  -0.30340
 Alpha virt. eigenvalues --   -0.01317   0.02496   0.04411   0.08920   0.19297
 Alpha virt. eigenvalues --    0.20383   0.27299   0.30489   0.39612   0.45216
 Alpha virt. eigenvalues --    0.47321   0.55034   0.58061   0.59520   0.66924

 Mulliken charges:
               1
     1  C    0.215737
     2  N   -0.061212
     3  N   -0.071749
     4  N   -0.088816
     5  N   -0.201196
     6  H    0.073109
     7  H    0.134127
 Sum of Mulliken charges =   0.00000

 Dipole moment (field-independent basis, Debye):
    X=              2.4324    Y=              4.6861    Z=              0.0000  Tot=              5.2798
 Quadrupole moment (field-independent basis, Debye-Ang):
   XX=            -28.4562   YY=            -25.8893   ZZ=            -27.9155
   XY=              1.7378   XZ=              0.0000   YZ=              0.0000

  Exact polarizability:  37.469   1.064  36.562   0.000   0.000  16.118
 Approx polarizability:  62.671   0.562  65.750   0.000   0.000  23.958

                      1                      2                      3
                     A"                     A"                     A"
 Frequencies --    601.8661               701.8553               754.6982
 Red. masses --      1.7495                 1.9826                 7.8041
 Frc consts  --      0.3734                 0.5754                 2.6189
 IR Inten    --     77.4563                 7.3362                 8.7452

                      4                      5                      6
                     A"                     A'                     A'
 Frequencies --    865.9045               991.4707              1027.0191
 Red. masses --      1.3832                 3.6656                 5.1972
 Frc consts  --      0.6110                 2.1231                 3.2298
 IR Inten    --     17.2910                 3.3263                 2.0811

                      7                      8                      9
                     A'                     A'                     A'
 Frequencies --   1090.1577              1106.0389              1158.2032
 Red. masses --      2.6834                 4.2437                 2.2881
 Frc consts  --      1.8789                 3.0587                 1.8084
 IR Inten    --     32.2300                18.5364                11.5895

                     10                     11                     12
                     A'                     A'                     A'
 Frequencies --   1285.4696              1343.7593              1488.3958
 Red. masses --      2.6800                10.0046                 3.4822
 Frc consts  --      2.6092                10.6437                 4.5450
 IR Inten    --      1.3538                16.3782                 8.1110

                     13                     14                     15
                     A'                     A'                     A'
 Frequencies --   1535.0540              3318.6764              3675.8904
 Red. masses --      4.0974                 1.1021                 1.0849
 Frc consts  --      5.6886                 7.1515                 8.6369
 IR Inten    --     14.2729                 2.1857               101.6146

 - Thermochemistry -
 -------------------
 Temperature   298.150 Kelvin.  Pressure   1.00000 Atm.
 Atom     1 has atomic number  6 and mass  12.00000

 Molecular mass:    70.02795 amu.
 Principal axes and moments of inertia in atomic units:
                           1         2         3
     Eigenvalues --   169.85412 172.92408 342.77819
           X            0.78788   0.61583   0.00000
           Y           -0.61583   0.78788   0.00000
           Z            0.00000   0.00000   1.00000
 This molecule is an asymmetric top.
 Rotational symmetry number  1.
 Rotational temperatures (Kelvin)      0.50993     0.50088     0.25268
 Rotational constants (GHZ):          10.62524    10.43661     5.26504
 Zero-point vibrational energy     125275.7 (Joules/Mol)
                                   29.94161 (Kcal/Mol)
 Warning -- explicit consideration of   1 degrees of freedom as
           vibrations may cause significant error
 Vibrational temperatures:    865.95  1009.81  1085.84  1245.84  1426.50
          (Kelvin)           1477.65  1568.49  1591.34  1666.39  1849.50
                             1933.37  2141.47  2208.60  4774.83  5288.78

 Zero-point correction=                           0.047715 (Hartree/Particle)
 Thermal correction to Energy=                    0.051144
 Thermal correction to Enthalpy=                  0.052088
 Thermal correction to Gibbs Free Energy=         0.021648
 Sum of electronic and zero-point Energies=           -258.165720
 Sum of electronic and thermal Energies=              -258.162291
 Sum of electronic and thermal Enthalpies=            -258.161347
 Sum of electronic and thermal Free Energies=         -258.191787

                     E (Thermal)             CV                S
                      KCal/Mol        Cal/Mol-Kelvin    Cal/Mol-Kelvin
 Total                   32.094             11.052             64.068
 Electronic               0.000              0.000              0.000
 Translational            0.889              2.981             38.656
 Rotational               0.889              2.981             23.825
 Vibrational             30.316              5.090              1.588
 Vibration     1          0.960              1.028              0.446

 Normal termination of Gaussian 09 at Mon Dec 16 13:51:56 2013.
