 Gaussian 09, Revision D.01,
 Gaussian 09:  EM64L-G09RevD.01 24-Apr-2013

 --------------------------
 #MPW1PW91/6-311G* opt freq
 --------------------------

 ------------------------------------------------------------------
 1H-tetrazole CH2N4 casno=288948 state=1 config=1 method=25 basis=7
 ------------------------------------------------------------------
 Symbolic Z-matrix:
 Charge =  0 Multiplicity = 1

 SCF Done:  E(RmPW1PW91) =  -258.244823593     A.U. after   14 cycles
 SCF Done:  E(RmPW1PW91) =  -258.246628489     A.U. after   12 cycles
 SCF Done:  E(RmPW1PW91) =  -258.246667419     A.U. after    9 cycles
 SCF Done:  E(RmPW1PW91) =  -258.246675278     A.U. after    9 cycles
 SCF Done:  E(RmPW1PW91) =  -258.246677258     A.U. after    8 cycles
 Optimization completed.
    -- Stationary point found.
 Normal termination of Gaussian 09 at Mon Dec 16 15:36:01 2013.

 ----------------------------------------------------------------------
 #N Geom=AllCheck Guess=TCheck SCRF=Check GenChk RmPW1PW91/6-311G(d) Fr
 eq
 ----------------------------------------------------------------------

 Structure from the checkpoint file:  "/tmp/rdj3/g09-26267/Gau-28889.chk"
 ------------------------------------------------------------------
 1H-tetrazole CH2N4 casno=288948 state=1 config=1 method=25 basis=7
 ------------------------------------------------------------------
 Charge =  0 Multiplicity = 1

                         Standard orientation:
 ---------------------------------------------------------------------
 Center     Atomic      Atomic             Coordinates (Angstroms)
 Number     Number       Type             X           Y           Z
 ---------------------------------------------------------------------
      1          6           0        1.061933    0.231458    0.000000
      2          7           0        0.000000    1.048168    0.000000
      3          7           0       -1.111238    0.301263    0.000000
      4          7           0       -0.719319   -0.917832    0.000000
      5          7           0        0.630649   -1.002297    0.000000
      6          1           0        2.089139    0.554858    0.000000
      7          1           0       -0.061382    2.051281    0.000000
 ---------------------------------------------------------------------

 SCF Done:  E(RmPW1PW91) =  -258.246677258     A.U. after    1 cycles

 The electronic state is 1-A'.
 Alpha  occ. eigenvalues --  -14.50947 -14.47180 -14.45354 -14.42481 -10.32759
 Alpha  occ. eigenvalues --   -1.19139  -0.98595  -0.93109  -0.71078  -0.69568
 Alpha  occ. eigenvalues --   -0.62530  -0.52547  -0.52345  -0.40277  -0.35308
 Alpha  occ. eigenvalues --   -0.32978  -0.32404  -0.30911
 Alpha virt. eigenvalues --   -0.01782   0.01986   0.02780   0.07197   0.17912
 Alpha virt. eigenvalues --    0.19362   0.22721   0.28609   0.33494   0.39906
 Alpha virt. eigenvalues --    0.41704   0.44172   0.50524   0.56239   0.57003

 Mulliken charges:
               1
     1  C    0.144492
     2  N   -0.443457
     3  N   -0.013735
     4  N   -0.087493
     5  N   -0.248738
     6  H    0.263454
     7  H    0.385476
 Sum of Mulliken charges =   0.00000

 Dipole moment (field-independent basis, Debye):
    X=              2.5253    Y=              4.8379    Z=              0.0000  Tot=              5.4574
 Quadrupole moment (field-independent basis, Debye-Ang):
   XX=            -28.7162   YY=            -26.1959   ZZ=            -28.2676
   XY=              1.8202   XZ=              0.0000   YZ=              0.0000

  Exact polarizability:  38.281   0.924  37.688   0.000   0.000  17.459
 Approx polarizability:  62.537   0.418  66.014   0.000   0.000  25.327

                      1                      2                      3
                     A"                     A"                     A"
 Frequencies --    619.5050               708.4459               754.6723
 Red. masses --      1.9722                 1.7881                 7.4890
 Frc consts  --      0.4459                 0.5288                 2.5130
 IR Inten    --     88.3279                15.2339                10.2276

                      4                      5                      6
                     A"                     A'                     A'
 Frequencies --    863.6015               994.7726              1032.1629
 Red. masses --      1.3734                 4.2870                 6.2050
 Frc consts  --      0.6035                 2.4995                 3.8949
 IR Inten    --     19.3271                 4.4229                 0.8764

                      7                      8                      9
                     A'                     A'                     A'
 Frequencies --   1086.2319              1101.6645              1165.3269
 Red. masses --      4.1104                 3.6554                 2.0312
 Frc consts  --      2.8574                 2.6139                 1.6252
 IR Inten    --     18.8057                30.4382                13.3040

                     10                     11                     12
                     A'                     A'                     A'
 Frequencies --   1294.9339              1338.0112              1494.6444
 Red. masses --      2.5370                 9.7726                 3.4625
 Frc consts  --      2.5065                10.3081                 4.5573
 IR Inten    --      1.1731                18.1098                 9.0917

                     13                     14                     15
                     A'                     A'                     A'
 Frequencies --   1548.0255              3312.8880              3713.8835
 Red. masses --      3.0770                 1.1016                 1.0837
 Frc consts  --      4.3445                 7.1234                 8.8070
 IR Inten    --     18.4484                 0.5123                80.1318

 - Thermochemistry -
 -------------------
 Temperature   298.150 Kelvin.  Pressure   1.00000 Atm.
 Atom     1 has atomic number  6 and mass  12.00000

 Molecular mass:    70.02795 amu.
 Principal axes and moments of inertia in atomic units:
                           1         2         3
     Eigenvalues --   169.19964 172.19723 341.39687
           X            0.84725   0.53120   0.00000
           Y           -0.53120   0.84725   0.00000
           Z            0.00000   0.00000   1.00000
 This molecule is an asymmetric top.
 Rotational symmetry number  1.
 Rotational temperatures (Kelvin)      0.51190     0.50299     0.25370
 Rotational constants (GHZ):          10.66634    10.48066     5.28634
 Zero-point vibrational energy     125780.0 (Joules/Mol)
                                   30.06214 (Kcal/Mol)
 Warning -- explicit consideration of   1 degrees of freedom as
           vibrations may cause significant error
 Vibrational temperatures:    891.33  1019.29  1085.80  1242.53  1431.25
          (Kelvin)           1485.05  1562.84  1585.05  1676.64  1863.12
                             1925.10  2150.46  2227.26  4766.50  5343.44

 Zero-point correction=                           0.047907 (Hartree/Particle)
 Thermal correction to Energy=                    0.051323
 Thermal correction to Enthalpy=                  0.052268
 Thermal correction to Gibbs Free Energy=         0.021851
 Sum of electronic and zero-point Energies=           -258.198770
 Sum of electronic and thermal Energies=              -258.195354
 Sum of electronic and thermal Enthalpies=            -258.194410
 Sum of electronic and thermal Free Energies=         -258.224826

                     E (Thermal)             CV                S
                      KCal/Mol        Cal/Mol-Kelvin    Cal/Mol-Kelvin
 Total                   32.206             10.992             64.017
 Electronic               0.000              0.000              0.000
 Translational            0.889              2.981             38.656
 Rotational               0.889              2.981             23.813
 Vibrational             30.428              5.030              1.548
 Vibration     1          0.979              0.991              0.417

 Optimization completed.
    -- Stationary point found.
 Normal termination of Gaussian 09 at Mon Dec 16 15:36:10 2013.
