 Gaussian 09, Revision D.01,
 Gaussian 09:  EM64L-G09RevD.01 24-Apr-2013

 ---------------------------------------
 #MPW1PW91/aug-cc-pVTZ opt=z-matrix freq
 ---------------------------------------

 -------------------------------------------------------------------
 1H-tetrazole CH2N4 casno=288948 state=1 config=1 method=25 basis=18
 -------------------------------------------------------------------
 Symbolic Z-matrix:
 Charge =  0 Multiplicity = 1

 SCF Done:  E(RmPW1PW91) =  -258.284318352     A.U. after   12 cycles
 SCF Done:  E(RmPW1PW91) =  -258.285736566     A.U. after   10 cycles
 SCF Done:  E(RmPW1PW91) =  -258.285762032     A.U. after    9 cycles
 SCF Done:  E(RmPW1PW91) =  -258.285780393     A.U. after    8 cycles
 SCF Done:  E(RmPW1PW91) =  -258.285376721     A.U. after    9 cycles
 SCF Done:  E(RmPW1PW91) =  -258.285789159     A.U. after    7 cycles
 SCF Done:  E(RmPW1PW91) =  -258.285792305     A.U. after    8 cycles
 SCF Done:  E(RmPW1PW91) =  -258.285616636     A.U. after    9 cycles
 SCF Done:  E(RmPW1PW91) =  -258.285792153     A.U. after    6 cycles
 SCF Done:  E(RmPW1PW91) =  -258.285793554     A.U. after    7 cycles
 SCF Done:  E(RmPW1PW91) =  -258.285676275     A.U. after   10 cycles
 SCF Done:  E(RmPW1PW91) =  -258.285793601     A.U. after    7 cycles
 SCF Done:  E(RmPW1PW91) =  -258.285691128     A.U. after   10 cycles
 SCF Done:  E(RmPW1PW91) =  -258.285793956     A.U. after    7 cycles
 SCF Done:  E(RmPW1PW91) =  -258.285792265     A.U. after    8 cycles
 SCF Done:  E(RmPW1PW91) =  -258.285793612     A.U. after    5 cycles
 SCF Done:  E(RmPW1PW91) =  -258.285793860     A.U. after    4 cycles
 Optimization completed.
    -- Stationary point found.
 Normal termination of Gaussian 09 at Mon Nov 25 17:35:32 2013.

 ----------------------------------------------------------------------
 #N Geom=AllCheck Guess=TCheck SCRF=Check GenChk RmPW1PW91/Aug-CC-pVTZ
 Freq
 ----------------------------------------------------------------------

 Structure from the checkpoint file:  "/tmp/rdj3/g09-15973/Gau-20290.chk"
 -------------------------------------------------------------------
 1H-tetrazole CH2N4 casno=288948 state=1 config=1 method=25 basis=18
 -------------------------------------------------------------------
 Charge =  0 Multiplicity = 1

                         Standard orientation:
 ---------------------------------------------------------------------
 Center     Atomic      Atomic             Coordinates (Angstroms)
 Number     Number       Type             X           Y           Z
 ---------------------------------------------------------------------
      1          6           0        1.060672    0.232292    0.000000
      2          7           0        0.000000    1.045376    0.000000
      3          7           0       -1.108878    0.301128    0.000000
      4          7           0       -0.718557   -0.916970    0.000000
      5          7           0        0.628593   -1.000528    0.000000
      6          1           0        2.086325    0.555249    0.000000
      7          1           0       -0.058459    2.047955    0.000000
 ---------------------------------------------------------------------

 SCF Done:  E(RmPW1PW91) =  -258.285793860     A.U. after    1 cycles

 The electronic state is 1-A'.
 Alpha  occ. eigenvalues --  -14.51775 -14.48311 -14.46647 -14.43634 -10.33260
 Alpha  occ. eigenvalues --   -1.19289  -0.98761  -0.93241  -0.71174  -0.69829
 Alpha  occ. eigenvalues --   -0.62631  -0.53045  -0.52477  -0.40766  -0.35761
 Alpha  occ. eigenvalues --   -0.33329  -0.32924  -0.31491
 Alpha virt. eigenvalues --   -0.02535  -0.02273   0.00691   0.00896   0.03335
 Alpha virt. eigenvalues --    0.03809   0.05575   0.06424   0.07380   0.07868
 Alpha virt. eigenvalues --    0.09084   0.09086   0.10447   0.12181   0.12911

 Mulliken charges:
               1
     1  C   -0.043464
     2  N    0.257904
     3  N   -0.320587
     4  N   -0.165823
     5  N   -0.282891
     6  H    0.453385
     7  H    0.101476
 Sum of Mulliken charges =   0.00000

 Dipole moment (field-independent basis, Debye):
    X=              2.5049    Y=              4.7354    Z=              0.0000  Tot=              5.3571
 Quadrupole moment (field-independent basis, Debye-Ang):
   XX=            -29.0052   YY=            -26.5082   ZZ=            -28.5011
   XY=              1.8601   XZ=              0.0000   YZ=              0.0000

  Exact polarizability:  44.906   0.516  44.361   0.000   0.000  26.065
 Approx polarizability:  70.000   0.410  73.143   0.000   0.000  37.204

                      1                      2                      3
                     A"                     A"                     A"
 Frequencies --    615.0651               703.5319               756.9180
 Red. masses --      1.7108                 1.9736                 8.3214
 Frc consts  --      0.3813                 0.5755                 2.8090
 IR Inten    --     79.5461                 7.3937                 7.8274

                      4                      5                      6
                     A"                     A'                     A'
 Frequencies --    880.4483               991.8169              1028.0766
 Red. masses --      1.3957                 4.2712                 6.1087
 Frc consts  --      0.6375                 2.4755                 3.8041
 IR Inten    --     16.3315                 3.3078                 0.7390

                      7                      8                      9
                     A'                     A'                     A'
 Frequencies --   1082.0908              1092.6362              1159.7562
 Red. masses --      4.0781                 3.4183                 2.0520
 Frc consts  --      2.8134                 2.4044                 1.6261
 IR Inten    --     16.9087                29.7414                12.9262

                     10                     11                     12
                     A'                     A'                     A'
 Frequencies --   1286.3935              1328.4330              1480.6955
 Red. masses --      2.4504                10.6442                 3.3286
 Frc consts  --      2.3891                11.0673                 4.2998
 IR Inten    --      1.6230                13.0702                 8.8958

                     13                     14                     15
                     A'                     A'                     A'
 Frequencies --   1530.6334              3300.9736              3688.2234
 Red. masses --      3.4650                 1.1017                 1.0838
 Frc consts  --      4.7829                 7.0729                 8.6865
 IR Inten    --     16.7707                 1.9008                96.7865

 - Thermochemistry -
 -------------------
 Temperature   298.150 Kelvin.  Pressure   1.00000 Atm.
 Atom     1 has atomic number  6 and mass  12.00000

 Molecular mass:    70.02795 amu.
 Principal axes and moments of inertia in atomic units:
                           1         2         3
     Eigenvalues --   168.77192 171.43775 340.20967
           X            0.86076   0.50901   0.00000
           Y           -0.50901   0.86076   0.00000
           Z            0.00000   0.00000   1.00000
 This molecule is an asymmetric top.
 Rotational symmetry number  1.
 Rotational temperatures (Kelvin)      0.51320     0.50522     0.25459
 Rotational constants (GHZ):          10.69337    10.52709     5.30479
 Zero-point vibrational energy     125163.4 (Joules/Mol)
                                   29.91478 (Kcal/Mol)
 Warning -- explicit consideration of   1 degrees of freedom as
           vibrations may cause significant error
 Vibrational temperatures:    884.94  1012.22  1089.03  1266.77  1427.00
          (Kelvin)           1479.17  1556.89  1572.06  1668.63  1850.83
                             1911.32  2130.39  2202.24  4749.36  5306.52

 Zero-point correction=                           0.047672 (Hartree/Particle)
 Thermal correction to Energy=                    0.051092
 Thermal correction to Enthalpy=                  0.052037
 Thermal correction to Gibbs Free Energy=         0.021620
 Sum of electronic and zero-point Energies=           -258.238122
 Sum of electronic and thermal Energies=              -258.234701
 Sum of electronic and thermal Enthalpies=            -258.233757
 Sum of electronic and thermal Free Energies=         -258.264174

                     E (Thermal)             CV                S
                      KCal/Mol        Cal/Mol-Kelvin    Cal/Mol-Kelvin
 Total                   32.061             11.021             64.018
 Electronic               0.000              0.000              0.000
 Translational            0.889              2.981             38.656
 Rotational               0.889              2.981             23.802
 Vibrational             30.284              5.060              1.559
 Vibration     1          0.975              1.000              0.424

 Normal termination of Gaussian 09 at Mon Nov 25 17:43:09 2013.
