 Gaussian 09, Revision D.01,
 Gaussian 09:  EM64L-G09RevD.01 24-Apr-2013

 ----------------------------------
 #MPW1PW91/6-31G* opt=z-matrix freq
 ----------------------------------

 ------------------------------------------------------------------
 1H-tetrazole CH2N4 casno=288948 state=1 config=1 method=25 basis=1
 ------------------------------------------------------------------
 Symbolic Z-matrix:
 Charge =  0 Multiplicity = 1

 SCF Done:  E(RmPW1PW91) =  -258.186782081     A.U. after   14 cycles
 SCF Done:  E(RmPW1PW91) =  -258.189334674     A.U. after   12 cycles
 SCF Done:  E(RmPW1PW91) =  -258.189372019     A.U. after   11 cycles
 SCF Done:  E(RmPW1PW91) =  -258.189388711     A.U. after   11 cycles
 SCF Done:  E(RmPW1PW91) =  -258.189395695     A.U. after    9 cycles
 SCF Done:  E(RmPW1PW91) =  -258.188298319     A.U. after   13 cycles
 SCF Done:  E(RmPW1PW91) =  -258.189399557     A.U. after    9 cycles
 SCF Done:  E(RmPW1PW91) =  -258.189400050     A.U. after    9 cycles
 SCF Done:  E(RmPW1PW91) =  -258.189394935     A.U. after   10 cycles
 SCF Done:  E(RmPW1PW91) =  -258.189401435     A.U. after    8 cycles
 SCF Done:  E(RmPW1PW91) =  -258.189401439     A.U. after    4 cycles
 SCF Done:  E(RmPW1PW91) =  -258.189401713     A.U. after    7 cycles
 SCF Done:  E(RmPW1PW91) =  -258.189380622     A.U. after   11 cycles
 SCF Done:  E(RmPW1PW91) =  -258.189401329     A.U. after    8 cycles
 SCF Done:  E(RmPW1PW91) =  -258.189401684     A.U. after    4 cycles
 SCF Done:  E(RmPW1PW91) =  -258.189401747     A.U. after    6 cycles
 SCF Done:  E(RmPW1PW91) =  -258.189387742     A.U. after   10 cycles
 SCF Done:  E(RmPW1PW91) =  -258.189401184     A.U. after    9 cycles
 SCF Done:  E(RmPW1PW91) =  -258.189401574     A.U. after    7 cycles
 Optimization completed.
    -- Stationary point found.
 Normal termination of Gaussian 09 at Mon Nov 25 17:47:04 2013.

 ----------------------------------------------------------------------
 #N Geom=AllCheck Guess=TCheck SCRF=Check GenChk RmPW1PW91/6-31G(d) Fre
 q
 ----------------------------------------------------------------------

 Structure from the checkpoint file:  "/tmp/rdj3/g09-15973/Gau-23600.chk"
 ------------------------------------------------------------------
 1H-tetrazole CH2N4 casno=288948 state=1 config=1 method=25 basis=1
 ------------------------------------------------------------------
 Charge =  0 Multiplicity = 1

                         Standard orientation:
 ---------------------------------------------------------------------
 Center     Atomic      Atomic             Coordinates (Angstroms)
 Number     Number       Type             X           Y           Z
 ---------------------------------------------------------------------
      1          6           0        1.064224    0.233248    0.000000
      2          7           0        0.000000    1.048721    0.000000
      3          7           0       -1.114032    0.302943    0.000000
      4          7           0       -0.719021   -0.920476    0.000000
      5          7           0        0.630796   -1.004340    0.000000
      6          1           0        2.092404    0.557607    0.000000
      7          1           0       -0.061952    2.054976    0.000000
 ---------------------------------------------------------------------

 SCF Done:  E(RmPW1PW91) =  -258.189401574     A.U. after    1 cycles

 The electronic state is 1-A'.
 Alpha  occ. eigenvalues --  -14.53088 -14.49198 -14.47383 -14.44494 -10.34182
 Alpha  occ. eigenvalues --   -1.18512  -0.98180  -0.92583  -0.70685  -0.69103
 Alpha  occ. eigenvalues --   -0.62037  -0.52038  -0.51960  -0.39871  -0.34888
 Alpha  occ. eigenvalues --   -0.32476  -0.32076  -0.30522
 Alpha virt. eigenvalues --   -0.01376   0.02482   0.06790   0.12034   0.19735
 Alpha virt. eigenvalues --    0.21153   0.29593   0.33499   0.43148   0.53046
 Alpha virt. eigenvalues --    0.53679   0.60919   0.61768   0.66358   0.68336

 Mulliken charges:
               1
     1  C    0.255238
     2  N   -0.445661
     3  N   -0.038255
     4  N   -0.081404
     5  N   -0.313270
     6  H    0.232705
     7  H    0.390648
 Sum of Mulliken charges =   0.00000

 Dipole moment (field-independent basis, Debye):
    X=              2.5225    Y=              4.7924    Z=              0.0000  Tot=              5.4157
 Quadrupole moment (field-independent basis, Debye-Ang):
   XX=            -28.4248   YY=            -25.8840   ZZ=            -28.1418
   XY=              1.7938   XZ=              0.0000   YZ=              0.0000

  Exact polarizability:  37.145   0.932  36.542   0.000   0.000  15.614
 Approx polarizability:  61.975   0.241  65.396   0.000   0.000  23.211

                      1                      2                      3
                     A"                     A"                     A"
 Frequencies --    598.7006               703.1021               752.2239
 Red. masses --      1.7935                 1.9609                 8.0314
 Frc consts  --      0.3788                 0.5711                 2.6775
 IR Inten    --     93.6751                10.3170                 8.9320

                      4                      5                      6
                     A"                     A'                     A'
 Frequencies --    860.9072               996.3015              1030.2509
 Red. masses --      1.3590                 4.4091                 5.5538
 Frc consts  --      0.5934                 2.5786                 3.4732
 IR Inten    --     18.3939                 3.3824                 1.5671

                      7                      8                      9
                     A'                     A'                     A'
 Frequencies --   1097.2674              1113.7119              1170.8577
 Red. masses --      3.1805                 4.9364                 1.9260
 Frc consts  --      2.2562                 3.6075                 1.5556
 IR Inten    --     27.1802                22.7799                11.5151

                     10                     11                     12
                     A'                     A'                     A'
 Frequencies --   1299.1528              1341.2881              1498.6371
 Red. masses --      2.5547                10.4182                 3.4397
 Frc consts  --      2.5404                11.0430                 4.5516
 IR Inten    --      1.5447                17.5855                 8.9933

                     13                     14                     15
                     A'                     A'                     A'
 Frequencies --   1545.2064              3341.2314              3702.0789
 Red. masses --      3.4190                 1.1012                 1.0839
 Frc consts  --      4.8098                 7.2432                 8.7524
 IR Inten    --     18.2220                 1.1505                91.7489

 - Thermochemistry -
 -------------------
 Temperature   298.150 Kelvin.  Pressure   1.00000 Atm.
 Atom     1 has atomic number  6 and mass  12.00000

 Molecular mass:    70.02795 amu.
 Principal axes and moments of inertia in atomic units:
                           1         2         3
     Eigenvalues --   169.82659 172.78296 342.60955
           X            0.83902   0.54410   0.00000
           Y           -0.54410   0.83902   0.00000
           Z            0.00000   0.00000   1.00000
 This molecule is an asymmetric top.
 Rotational symmetry number  1.
 Rotational temperatures (Kelvin)      0.51001     0.50129     0.25281
 Rotational constants (GHZ):          10.62696    10.44513     5.26763
 Zero-point vibrational energy     125912.4 (Joules/Mol)
                                   30.09380 (Kcal/Mol)
 Warning -- explicit consideration of   1 degrees of freedom as
           vibrations may cause significant error
 Vibrational temperatures:    861.40  1011.61  1082.28  1238.65  1433.45
          (Kelvin)           1482.30  1578.72  1602.38  1684.60  1869.19
                             1929.81  2156.20  2223.20  4807.28  5326.46

 Zero-point correction=                           0.047958 (Hartree/Particle)
 Thermal correction to Energy=                    0.051386
 Thermal correction to Enthalpy=                  0.052330
 Thermal correction to Gibbs Free Energy=         0.021890
 Sum of electronic and zero-point Energies=           -258.141444
 Sum of electronic and thermal Energies=              -258.138016
 Sum of electronic and thermal Enthalpies=            -258.137072
 Sum of electronic and thermal Free Energies=         -258.167511

                     E (Thermal)             CV                S
                      KCal/Mol        Cal/Mol-Kelvin    Cal/Mol-Kelvin
 Total                   32.245             11.026             64.065
 Electronic               0.000              0.000              0.000
 Translational            0.889              2.981             38.656
 Rotational               0.889              2.981             23.823
 Vibrational             30.467              5.065              1.586
 Vibration     1          0.957              1.035              0.452

 Normal termination of Gaussian 09 at Mon Nov 25 17:47:12 2013.
