 Gaussian 09, Revision D.01,
 Gaussian 09:  EM64L-G09RevD.01 24-Apr-2013

 ---------------------------
 #MPW1PW91/6-31+G** opt freq
 ---------------------------

 ------------------------------------------------------------------
 1H-tetrazole CH2N4 casno=288948 state=1 config=1 method=25 basis=4
 ------------------------------------------------------------------
 Symbolic Z-matrix:
 Charge =  0 Multiplicity = 1

 SCF Done:  E(RmPW1PW91) =  -258.201764587     A.U. after   12 cycles
 SCF Done:  E(RmPW1PW91) =  -258.204252122     A.U. after   12 cycles
 SCF Done:  E(RmPW1PW91) =  -258.204303407     A.U. after   10 cycles
 SCF Done:  E(RmPW1PW91) =  -258.204320478     A.U. after   10 cycles
 SCF Done:  E(RmPW1PW91) =  -258.204325012     A.U. after    9 cycles
 Optimization completed.
    -- Stationary point found.
 Normal termination of Gaussian 09 at Mon Dec 16 15:35:36 2013.

 ----------------------------------------------------------------------
 #N Geom=AllCheck Guess=TCheck SCRF=Check GenChk RmPW1PW91/6-31+G(d,p)
 Freq
 ----------------------------------------------------------------------

 Structure from the checkpoint file:  "/tmp/rdj3/g09-26267/Gau-28306.chk"
 ------------------------------------------------------------------
 1H-tetrazole CH2N4 casno=288948 state=1 config=1 method=25 basis=4
 ------------------------------------------------------------------
 Charge =  0 Multiplicity = 1

                         Standard orientation:
 ---------------------------------------------------------------------
 Center     Atomic      Atomic             Coordinates (Angstroms)
 Number     Number       Type             X           Y           Z
 ---------------------------------------------------------------------
      1          6           0        1.064535    0.233795    0.000000
      2          7           0        0.000000    1.049685    0.000000
      3          7           0       -1.113228    0.302285    0.000000
      4          7           0       -0.719595   -0.921132    0.000000
      5          7           0        0.629985   -1.004297    0.000000
      6          1           0        2.092978    0.556000    0.000000
      7          1           0       -0.060325    2.055435    0.000000
 ---------------------------------------------------------------------

 SCF Done:  E(RmPW1PW91) =  -258.204325012     A.U. after    1 cycles

 The electronic state is 1-A'.
 Alpha  occ. eigenvalues --  -14.54031 -14.50392 -14.48622 -14.45760 -10.35052
 Alpha  occ. eigenvalues --   -1.19626  -0.99213  -0.93629  -0.71567  -0.70088
 Alpha  occ. eigenvalues --   -0.62850  -0.53004  -0.52778  -0.40901  -0.35929
 Alpha  occ. eigenvalues --   -0.33477  -0.33176  -0.31667
 Alpha virt. eigenvalues --   -0.02827  -0.01174   0.00645   0.02562   0.04388
 Alpha virt. eigenvalues --    0.05375   0.07614   0.09338   0.11366   0.13106
 Alpha virt. eigenvalues --    0.14528   0.15689   0.17146   0.18632   0.18804

 Mulliken charges:
               1
     1  C   -0.002118
     2  N   -0.303930
     3  N   -0.001582
     4  N   -0.005437
     5  N   -0.248903
     6  H    0.205912
     7  H    0.356059
 Sum of Mulliken charges =   0.00000

 Dipole moment (field-independent basis, Debye):
    X=              2.6430    Y=              4.9268    Z=              0.0000  Tot=              5.5910
 Quadrupole moment (field-independent basis, Debye-Ang):
   XX=            -29.2663   YY=            -26.6901   ZZ=            -28.7655
   XY=              1.9338   XZ=              0.0000   YZ=              0.0000

  Exact polarizability:  43.015   0.392  42.578   0.000   0.000  23.606
 Approx polarizability:  66.825  -0.044  70.514   0.000   0.000  32.865

                      1                      2                      3
                     A"                     A"                     A"
 Frequencies --    601.9022               698.0734               746.5595
 Red. masses --      1.8758                 1.8694                 8.2137
 Frc consts  --      0.4004                 0.5367                 2.6972
 IR Inten    --     85.6947                12.6122                 8.7372

                      4                      5                      6
                     A"                     A'                     A'
 Frequencies --    862.8640               992.7640              1026.3651
 Red. masses --      1.3547                 4.4095                 5.7884
 Frc consts  --      0.5943                 2.5605                 3.5926
 IR Inten    --     22.2335                 3.0871                 1.3212

                      7                      8                      9
                     A'                     A'                     A'
 Frequencies --   1093.6751              1108.8524              1164.5673
 Red. masses --      3.1433                 4.8128                 1.9291
 Frc consts  --      2.2152                 3.4865                 1.5414
 IR Inten    --     25.5054                25.6899                11.6452

                     10                     11                     12
                     A'                     A'                     A'
 Frequencies --   1294.8573              1339.8839              1491.7845
 Red. masses --      2.5364                10.2217                 3.4146
 Frc consts  --      2.5056                10.8121                 4.4772
 IR Inten    --      1.3044                18.4619                 9.6980

                     13                     14                     15
                     A'                     A'                     A'
 Frequencies --   1539.6236              3332.9282              3710.3736
 Red. masses --      3.5028                 1.1015                 1.0843
 Frc consts  --      4.8922                 7.2093                 8.7947
 IR Inten    --     17.7111                 2.6287               107.9942

 - Thermochemistry -
 -------------------
 Temperature   298.150 Kelvin.  Pressure   1.00000 Atm.
 Atom     1 has atomic number  6 and mass  12.00000

 Molecular mass:    70.02795 amu.
 Principal axes and moments of inertia in atomic units:
                           1         2         3
     Eigenvalues --   170.06729 172.62773 342.69502
           X            0.83307   0.55317   0.00000
           Y           -0.55317   0.83307   0.00000
           Z            0.00000   0.00000   1.00000
 This molecule is an asymmetric top.
 Rotational symmetry number  1.
 Rotational temperatures (Kelvin)      0.50929     0.50174     0.25274
 Rotational constants (GHZ):          10.61192    10.45453     5.26632
 Zero-point vibrational energy     125638.2 (Joules/Mol)
                                   30.02826 (Kcal/Mol)
 Warning -- explicit consideration of   1 degrees of freedom as
           vibrations may cause significant error
 Vibrational temperatures:    866.00  1004.37  1074.13  1241.47  1428.36
          (Kelvin)           1476.71  1573.55  1595.39  1675.55  1863.01
                             1927.79  2146.34  2215.17  4795.33  5338.39

 Zero-point correction=                           0.047853 (Hartree/Particle)
 Thermal correction to Energy=                    0.051286
 Thermal correction to Enthalpy=                  0.052230
 Thermal correction to Gibbs Free Energy=         0.021785
 Sum of electronic and zero-point Energies=           -258.156472
 Sum of electronic and thermal Energies=              -258.153039
 Sum of electronic and thermal Enthalpies=            -258.152095
 Sum of electronic and thermal Free Energies=         -258.182540

                     E (Thermal)             CV                S
                      KCal/Mol        Cal/Mol-Kelvin    Cal/Mol-Kelvin
 Total                   32.182             11.062             64.078
 Electronic               0.000              0.000              0.000
 Translational            0.889              2.981             38.656
 Rotational               0.889              2.981             23.824
 Vibrational             30.405              5.100              1.598
 Vibration     1          0.960              1.028              0.446

 Optimization completed.
    -- Stationary point found.
 Normal termination of Gaussian 09 at Mon Dec 16 15:35:46 2013.
