 Gaussian 09, Revision D.01,
 Gaussian 09:  EM64L-G09RevD.01 24-Apr-2013

 ---------------------------------
 #MPW1PW91/6-31G opt=z-matrix freq
 ---------------------------------

 ------------------------------------------------------------------
 1H-tetrazole CH2N4 casno=288948 state=1 config=1 method=25 basis=9
 ------------------------------------------------------------------
 Symbolic Z-matrix:
 Charge =  0 Multiplicity = 1

 SCF Done:  E(RmPW1PW91) =  -258.054694211     A.U. after   14 cycles
 SCF Done:  E(RmPW1PW91) =  -258.064888116     A.U. after   13 cycles
 SCF Done:  E(RmPW1PW91) =  -258.065145502     A.U. after   13 cycles
 SCF Done:  E(RmPW1PW91) =  -258.064457390     A.U. after   13 cycles
 SCF Done:  E(RmPW1PW91) =  -258.065287061     A.U. after   11 cycles
 SCF Done:  E(RmPW1PW91) =  -258.065317670     A.U. after   10 cycles
 SCF Done:  E(RmPW1PW91) =  -258.065324642     A.U. after    9 cycles
 SCF Done:  E(RmPW1PW91) =  -258.064333089     A.U. after   13 cycles
 SCF Done:  E(RmPW1PW91) =  -258.065326301     A.U. after    9 cycles
 SCF Done:  E(RmPW1PW91) =  -258.065326763     A.U. after    8 cycles
 SCF Done:  E(RmPW1PW91) =  -258.065323915     A.U. after    8 cycles
 SCF Done:  E(RmPW1PW91) =  -258.065326893     A.U. after    4 cycles
 SCF Done:  E(RmPW1PW91) =  -258.065326879     A.U. after    7 cycles
 SCF Done:  E(RmPW1PW91) =  -258.065326900     A.U. after    7 cycles
 Optimization completed.
    -- Stationary point found.
 Normal termination of Gaussian 09 at Mon Nov 25 18:00:06 2013.

 --------------------------------------------------------------------
 #N Geom=AllCheck Guess=TCheck SCRF=Check GenChk RmPW1PW91/6-31G Freq
 --------------------------------------------------------------------

 Structure from the checkpoint file:  "/tmp/rdj3/g09-15973/Gau-9793.chk"
 ------------------------------------------------------------------
 1H-tetrazole CH2N4 casno=288948 state=1 config=1 method=25 basis=9
 ------------------------------------------------------------------
 Charge =  0 Multiplicity = 1

                         Standard orientation:
 ---------------------------------------------------------------------
 Center     Atomic      Atomic             Coordinates (Angstroms)
 Number     Number       Type             X           Y           Z
 ---------------------------------------------------------------------
      1          6           0        1.079497    0.250666    0.000000
      2          7           0        0.000000    1.065757    0.000000
      3          7           0       -1.141704    0.297747    0.000000
      4          7           0       -0.733589   -0.945931    0.000000
      5          7           0        0.658941   -1.009565    0.000000
      6          1           0        2.102608    0.572393    0.000000
      7          1           0       -0.065121    2.067557    0.000000
 ---------------------------------------------------------------------

 SCF Done:  E(RmPW1PW91) =  -258.065326900     A.U. after    1 cycles

 The electronic state is 1-A'.
 Alpha  occ. eigenvalues --  -14.53784 -14.51353 -14.49394 -14.46549 -10.35891
 Alpha  occ. eigenvalues --   -1.20992  -0.99897  -0.95573  -0.72002  -0.70602
 Alpha  occ. eigenvalues --   -0.63417  -0.53133  -0.52687  -0.39802  -0.35927
 Alpha  occ. eigenvalues --   -0.33984  -0.32512  -0.31381
 Alpha virt. eigenvalues --   -0.03770   0.00205   0.06163   0.10473   0.16400
 Alpha virt. eigenvalues --    0.19028   0.25264   0.31187   0.39019   0.53058
 Alpha virt. eigenvalues --    0.55009   0.62422   0.66126   0.67278   0.68169

 Mulliken charges:
               1
     1  C    0.307484
     2  N   -0.587771
     3  N    0.021291
     4  N   -0.091266
     5  N   -0.304100
     6  H    0.256346
     7  H    0.398016
 Sum of Mulliken charges =   0.00000

 Dipole moment (field-independent basis, Debye):
    X=              2.7686    Y=              5.1871    Z=              0.0000  Tot=              5.8797
 Quadrupole moment (field-independent basis, Debye-Ang):
   XX=            -29.6174   YY=            -27.2262   ZZ=            -28.6512
   XY=              2.0650   XZ=              0.0000   YZ=              0.0000

  Exact polarizability:  37.351   1.027  36.846   0.000   0.000  13.930
 Approx polarizability:  63.644  -0.111  68.607   0.000   0.000  17.437

                      1                      2                      3
                     A"                     A"                     A"
 Frequencies --    680.4486               726.7168               753.4342
 Red. masses --      3.9756                12.3200                 1.1287
 Frc consts  --      1.0845                 3.8335                 0.3775
 IR Inten    --     10.4830                 0.5053               167.1115

                      4                      5                      6
                     A'                     A"                     A'
 Frequencies --    894.3647               897.1115               975.5533
 Red. masses --      8.0640                 1.4012                 5.5328
 Frc consts  --      3.8004                 0.6644                 3.1024
 IR Inten    --      8.3153                14.5426                17.2349

                      7                      8                      9
                     A'                     A'                     A'
 Frequencies --   1023.2137              1051.4748              1163.5014
 Red. masses --      6.9900                 4.6739                 1.9801
 Frc consts  --      4.3118                 3.0446                 1.5793
 IR Inten    --      5.0736                14.1825                14.5187

                     10                     11                     12
                     A'                     A'                     A'
 Frequencies --   1224.4104              1266.0403              1438.2783
 Red. masses --      4.1313                 2.9913                 3.2020
 Frc consts  --      3.6492                 2.8249                 3.9026
 IR Inten    --     12.5590                 1.2490                 4.1667

                     13                     14                     15
                     A'                     A'                     A'
 Frequencies --   1509.4128              3390.9429              3754.5342
 Red. masses --      2.1625                 1.1029                 1.0847
 Frc consts  --      2.9028                 7.4716                 9.0091
 IR Inten    --     38.6942                 5.4135               111.7409

 - Thermochemistry -
 -------------------
 Temperature   298.150 Kelvin.  Pressure   1.00000 Atm.
 Atom     1 has atomic number  6 and mass  12.00000

 Molecular mass:    70.02795 amu.
 Principal axes and moments of inertia in atomic units:
                           1         2         3
     Eigenvalues --   175.80756 179.50190 355.30946
           X            0.99426   0.10695   0.00000
           Y           -0.10695   0.99426   0.00000
           Z            0.00000   0.00000   1.00000
 This molecule is an asymmetric top.
 Rotational symmetry number  1.
 Rotational temperatures (Kelvin)      0.49266     0.48252     0.24377
 Rotational constants (GHZ):          10.26544    10.05416     5.07935
 Zero-point vibrational energy     124109.2 (Joules/Mol)
                                   29.66281 (Kcal/Mol)
 Vibrational temperatures:    979.01  1045.58  1084.02  1286.79  1290.74
          (Kelvin)           1403.60  1472.17  1512.84  1674.02  1761.65
                             1821.55  2069.36  2171.71  4878.80  5401.93

 Zero-point correction=                           0.047271 (Hartree/Particle)
 Thermal correction to Energy=                    0.050692
 Thermal correction to Enthalpy=                  0.051636
 Thermal correction to Gibbs Free Energy=         0.021164
 Sum of electronic and zero-point Energies=           -258.018056
 Sum of electronic and thermal Energies=              -258.014635
 Sum of electronic and thermal Enthalpies=            -258.013691
 Sum of electronic and thermal Free Energies=         -258.044163

                     E (Thermal)             CV                S
                      KCal/Mol        Cal/Mol-Kelvin    Cal/Mol-Kelvin
 Total                   31.810             11.182             64.134
 Electronic               0.000              0.000              0.000
 Translational            0.889              2.981             38.656
 Rotational               0.889              2.981             23.932
 Vibrational             30.032              5.220              1.547

 Normal termination of Gaussian 09 at Mon Nov 25 18:00:10 2013.
