 Gaussian 09, Revision D.01,
 Gaussian 09:  EM64L-G09RevD.01 24-Apr-2013

 -------------------------------
 #mPW1PW91/6-31G(2df,p) opt freq
 -------------------------------

 -------------------------------------------------------------------
 1H-tetrazole CH2N4 casno=288948 state=1 config=1 method=25 basis=19
 -------------------------------------------------------------------
 Symbolic Z-matrix:
 Charge =  0 Multiplicity = 1

 SCF Done:  E(RmPW1PW91) =  -258.206303876     A.U. after   14 cycles
 SCF Done:  E(RmPW1PW91) =  -258.208314684     A.U. after   11 cycles
 SCF Done:  E(RmPW1PW91) =  -258.208367515     A.U. after    9 cycles
 SCF Done:  E(RmPW1PW91) =  -258.208379877     A.U. after    9 cycles
 SCF Done:  E(RmPW1PW91) =  -258.208382649     A.U. after    8 cycles
 Optimization completed.
    -- Stationary point found.
 Normal termination of Gaussian 09 at Mon Dec 16 15:34:32 2013.

 ----------------------------------------------------------------------
 #N Geom=AllCheck Guess=TCheck SCRF=Check GenChk RmPW1PW91/6-31G(2df,p)
  Freq
 ----------------------------------------------------------------------

 Structure from the checkpoint file:  "/tmp/rdj3/g09-26267/Gau-26909.chk"
 -------------------------------------------------------------------
 1H-tetrazole CH2N4 casno=288948 state=1 config=1 method=25 basis=19
 -------------------------------------------------------------------
 Charge =  0 Multiplicity = 1

                         Standard orientation:
 ---------------------------------------------------------------------
 Center     Atomic      Atomic             Coordinates (Angstroms)
 Number     Number       Type             X           Y           Z
 ---------------------------------------------------------------------
      1          6           0        1.061286    0.232856    0.000000
      2          7           0        0.000000    1.047698    0.000000
      3          7           0       -1.111425    0.302702    0.000000
      4          7           0       -0.718532   -0.919087    0.000000
      5          7           0        0.630795   -1.003901    0.000000
      6          1           0        2.087243    0.559959    0.000000
      7          1           0       -0.060826    2.051014    0.000000
 ---------------------------------------------------------------------

 SCF Done:  E(RmPW1PW91) =  -258.208382649     A.U. after    1 cycles

 The electronic state is 1-A'.
 Alpha  occ. eigenvalues --  -14.52067 -14.48368 -14.46682 -14.43783 -10.33485
 Alpha  occ. eigenvalues --   -1.18032  -0.97743  -0.92116  -0.70214  -0.68747
 Alpha  occ. eigenvalues --   -0.61610  -0.51903  -0.51482  -0.39631  -0.34658
 Alpha  occ. eigenvalues --   -0.32202  -0.31815  -0.30370
 Alpha virt. eigenvalues --   -0.01094   0.02619   0.07182   0.12340   0.19664
 Alpha virt. eigenvalues --    0.21104   0.28079   0.30227   0.39859   0.44470
 Alpha virt. eigenvalues --    0.47752   0.49347   0.52539   0.55986   0.57650

 Mulliken charges:
               1
     1  C    0.091678
     2  N   -0.221366
     3  N   -0.073908
     4  N   -0.086090
     5  N   -0.225297
     6  H    0.196302
     7  H    0.318682
 Sum of Mulliken charges =   0.00000

 Dipole moment (field-independent basis, Debye):
    X=              2.4476    Y=              4.6568    Z=              0.0000  Tot=              5.2609
 Quadrupole moment (field-independent basis, Debye-Ang):
   XX=            -28.2265   YY=            -25.6249   ZZ=            -27.9225
   XY=              1.7560   XZ=              0.0000   YZ=              0.0000

  Exact polarizability:  38.544   0.912  37.758   0.000   0.000  18.427
 Approx polarizability:  64.314   0.377  67.474   0.000   0.000  28.537

                      1                      2                      3
                     A"                     A"                     A"
 Frequencies --    606.2577               703.2476               756.1943
 Red. masses --      1.7094                 2.0164                 8.2972
 Frc consts  --      0.3702                 0.5876                 2.7954
 IR Inten    --     79.2168                 7.2397                 8.1470

                      4                      5                      6
                     A"                     A'                     A'
 Frequencies --    877.4611               995.0918              1029.4664
 Red. masses --      1.3762                 4.2633                 5.4633
 Frc consts  --      0.6243                 2.4873                 3.4113
 IR Inten    --     13.5271                 3.2568                 1.9214

                      7                      8                      9
                     A'                     A'                     A'
 Frequencies --   1096.7109              1106.0492              1167.0214
 Red. masses --      3.1736                 4.4954                 2.0096
 Frc consts  --      2.2490                 3.2401                 1.6125
 IR Inten    --     25.7449                22.6817                11.7736

                     10                     11                     12
                     A'                     A'                     A'
 Frequencies --   1291.4012              1338.6064              1488.2170
 Red. masses --      2.5464                10.4977                 3.3470
 Frc consts  --      2.5021                11.0828                 4.3675
 IR Inten    --      1.6192                14.6729                 8.6539

                     13                     14                     15
                     A'                     A'                     A'
 Frequencies --   1534.9798              3316.5986              3709.2292
 Red. masses --      3.6495                 1.1012                 1.0836
 Frc consts  --      5.0663                 7.1366                 8.7839
 IR Inten    --     16.5850                 1.3425                96.8147

 - Thermochemistry -
 -------------------
 Temperature   298.150 Kelvin.  Pressure   1.00000 Atm.
 Atom     1 has atomic number  6 and mass  12.00000

 Molecular mass:    70.02795 amu.
 Principal axes and moments of inertia in atomic units:
                           1         2         3
     Eigenvalues --   169.34497 172.25145 341.59642
           X            0.80692   0.59066   0.00000
           Y           -0.59066   0.80692   0.00000
           Z            0.00000   0.00000   1.00000
 This molecule is an asymmetric top.
 Rotational symmetry number  1.
 Rotational temperatures (Kelvin)      0.51146     0.50283     0.25356
 Rotational constants (GHZ):          10.65719    10.47736     5.28326
 Zero-point vibrational energy     125706.8 (Joules/Mol)
                                   30.04464 (Kcal/Mol)
 Warning -- explicit consideration of   1 degrees of freedom as
           vibrations may cause significant error
 Vibrational temperatures:    872.27  1011.82  1087.99  1262.47  1431.71
          (Kelvin)           1481.17  1577.92  1591.36  1679.08  1858.04
                             1925.95  2141.21  2208.49  4771.84  5336.75

 Zero-point correction=                           0.047879 (Hartree/Particle)
 Thermal correction to Energy=                    0.051300
 Thermal correction to Enthalpy=                  0.052244
 Thermal correction to Gibbs Free Energy=         0.021820
 Sum of electronic and zero-point Energies=           -258.160503
 Sum of electronic and thermal Energies=              -258.157083
 Sum of electronic and thermal Enthalpies=            -258.156138
 Sum of electronic and thermal Free Energies=         -258.186563

                     E (Thermal)             CV                S
                      KCal/Mol        Cal/Mol-Kelvin    Cal/Mol-Kelvin
 Total                   32.191             11.001             64.034
 Electronic               0.000              0.000              0.000
 Translational            0.889              2.981             38.656
 Rotational               0.889              2.981             23.814
 Vibrational             30.414              5.039              1.564
 Vibration     1          0.965              1.019              0.439

 Optimization completed.
    -- Stationary point found.
 Normal termination of Gaussian 09 at Mon Dec 16 15:35:01 2013.
