 Gaussian 09, Revision D.01,
 Gaussian 09:  EM64L-G09RevD.01 24-Apr-2013

 --------------------------------
 #MPW1PW91/TZVP opt=z-matrix freq
 --------------------------------

 -------------------------------------------------------------------
 1H-tetrazole CH2N4 casno=288948 state=1 config=1 method=25 basis=32
 -------------------------------------------------------------------
 Symbolic Z-matrix:
 Charge =  0 Multiplicity = 1

 SCF Done:  E(RmPW1PW91) =  -258.269730274     A.U. after   15 cycles
 SCF Done:  E(RmPW1PW91) =  -258.271349514     A.U. after   12 cycles
 SCF Done:  E(RmPW1PW91) =  -258.271362750     A.U. after   11 cycles
 SCF Done:  E(RmPW1PW91) =  -258.271384133     A.U. after   10 cycles
 SCF Done:  E(RmPW1PW91) =  -258.271389666     A.U. after    8 cycles
 SCF Done:  E(RmPW1PW91) =  -258.271213741     A.U. after   11 cycles
 SCF Done:  E(RmPW1PW91) =  -258.271395509     A.U. after    9 cycles
 SCF Done:  E(RmPW1PW91) =  -258.271396502     A.U. after    8 cycles
 SCF Done:  E(RmPW1PW91) =  -258.271320736     A.U. after   11 cycles
 SCF Done:  E(RmPW1PW91) =  -258.271396234     A.U. after    9 cycles
 SCF Done:  E(RmPW1PW91) =  -258.271397012     A.U. after    8 cycles
 SCF Done:  E(RmPW1PW91) =  -258.271317625     A.U. after   11 cycles
 SCF Done:  E(RmPW1PW91) =  -258.271397033     A.U. after    9 cycles
 SCF Done:  E(RmPW1PW91) =  -258.271394178     A.U. after    9 cycles
 SCF Done:  E(RmPW1PW91) =  -258.271397243     A.U. after    8 cycles
 SCF Done:  E(RmPW1PW91) =  -258.271396478     A.U. after    9 cycles
 SCF Done:  E(RmPW1PW91) =  -258.271397199     A.U. after    4 cycles
 SCF Done:  E(RmPW1PW91) =  -258.271397320     A.U. after    7 cycles
 SCF Done:  E(RmPW1PW91) =  -258.271397358     A.U. after    6 cycles
 Optimization completed.
    -- Stationary point found.
 Normal termination of Gaussian 09 at Mon Nov 25 17:50:23 2013.

 -------------------------------------------------------------------
 #N Geom=AllCheck Guess=TCheck SCRF=Check GenChk RmPW1PW91/TZVP Freq
 -------------------------------------------------------------------

 Structure from the checkpoint file:  "/tmp/rdj3/g09-15973/Gau-30409.chk"
 -------------------------------------------------------------------
 1H-tetrazole CH2N4 casno=288948 state=1 config=1 method=25 basis=32
 -------------------------------------------------------------------
 Charge =  0 Multiplicity = 1

                         Standard orientation:
 ---------------------------------------------------------------------
 Center     Atomic      Atomic             Coordinates (Angstroms)
 Number     Number       Type             X           Y           Z
 ---------------------------------------------------------------------
      1          6           0        1.061562    0.232341    0.000000
      2          7           0        0.000000    1.047536    0.000000
      3          7           0       -1.110571    0.299645    0.000000
      4          7           0       -0.718976   -0.917783    0.000000
      5          7           0        0.630018   -1.000625    0.000000
      6          1           0        2.088617    0.553193    0.000000
      7          1           0       -0.061284    2.051354    0.000000
 ---------------------------------------------------------------------

 SCF Done:  E(RmPW1PW91) =  -258.271397358     A.U. after    1 cycles

 The electronic state is 1-A'.
 Alpha  occ. eigenvalues --  -14.51705 -14.48099 -14.46307 -14.43396 -10.33246
 Alpha  occ. eigenvalues --   -1.19708  -0.99008  -0.93589  -0.71372  -0.70011
 Alpha  occ. eigenvalues --   -0.62851  -0.52986  -0.52668  -0.40727  -0.35782
 Alpha  occ. eigenvalues --   -0.33464  -0.32852  -0.31353
 Alpha virt. eigenvalues --   -0.02467   0.01280   0.01879   0.07267   0.12517
 Alpha virt. eigenvalues --    0.13425   0.17004   0.21036   0.23924   0.27666
 Alpha virt. eigenvalues --    0.29343   0.32993   0.35086   0.35984   0.37450

 Mulliken charges:
               1
     1  C   -0.119999
     2  N   -0.080422
     3  N   -0.077647
     4  N   -0.077916
     5  N   -0.055975
     6  H    0.141914
     7  H    0.270046
 Sum of Mulliken charges =   0.00000

 Dipole moment (field-independent basis, Debye):
    X=              2.5735    Y=              4.8932    Z=              0.0000  Tot=              5.5287
 Quadrupole moment (field-independent basis, Debye-Ang):
   XX=            -29.1203   YY=            -26.5684   ZZ=            -28.3646
   XY=              1.8669   XZ=              0.0000   YZ=              0.0000

  Exact polarizability:  40.981   0.680  40.539   0.000   0.000  21.698
 Approx polarizability:  64.475   0.255  68.248   0.000   0.000  30.508

                      1                      2                      3
                     A"                     A"                     A"
 Frequencies --    595.3569               703.2324               748.3466
 Red. masses --      2.1207                 1.7829                 7.0696
 Frc consts  --      0.4429                 0.5195                 2.3326
 IR Inten    --     70.4495                16.3065                10.4228

                      4                      5                      6
                     A"                     A'                     A'
 Frequencies --    856.2813               991.5702              1027.7854
 Red. masses --      1.3264                 4.5614                 6.4525
 Frc consts  --      0.5730                 2.6424                 4.0159
 IR Inten    --     24.3582                 4.2689                 0.4012

                      7                      8                      9
                     A'                     A'                     A'
 Frequencies --   1072.9578              1092.0357              1163.0417
 Red. masses --      4.3790                 3.4522                 2.0101
 Frc consts  --      2.9702                 2.4256                 1.6020
 IR Inten    --     18.5720                31.4849                14.6913

                     10                     11                     12
                     A'                     A'                     A'
 Frequencies --   1288.5369              1327.8479              1480.2537
 Red. masses --      2.3723                10.2558                 3.2739
 Frc consts  --      2.3207                10.6541                 4.2266
 IR Inten    --      2.4297                17.3142                 9.0741

                     13                     14                     15
                     A'                     A'                     A'
 Frequencies --   1534.4291              3308.5433              3692.5831
 Red. masses --      3.3341                 1.1018                 1.0839
 Frc consts  --      4.6251                 7.1060                 8.7079
 IR Inten    --     17.4796                 2.5590               105.1706

 - Thermochemistry -
 -------------------
 Temperature   298.150 Kelvin.  Pressure   1.00000 Atm.
 Atom     1 has atomic number  6 and mass  12.00000

 Molecular mass:    70.02795 amu.
 Principal axes and moments of inertia in atomic units:
                           1         2         3
     Eigenvalues --   169.11756 171.82487 340.94243
           X            0.87099   0.49130   0.00000
           Y           -0.49130   0.87099   0.00000
           Z            0.00000   0.00000   1.00000
 This molecule is an asymmetric top.
 Rotational symmetry number  1.
 Rotational temperatures (Kelvin)      0.51215     0.50408     0.25404
 Rotational constants (GHZ):          10.67152    10.50338     5.29339
 Zero-point vibrational energy     124906.9 (Joules/Mol)
                                   29.85346 (Kcal/Mol)
 Warning -- explicit consideration of   1 degrees of freedom as
           vibrations may cause significant error
 Vibrational temperatures:    856.58  1011.79  1076.70  1232.00  1426.65
          (Kelvin)           1478.75  1543.75  1571.19  1673.36  1853.91
                             1910.47  2129.75  2207.70  4760.25  5312.80

 Zero-point correction=                           0.047575 (Hartree/Particle)
 Thermal correction to Energy=                    0.051015
 Thermal correction to Enthalpy=                  0.051959
 Thermal correction to Gibbs Free Energy=         0.021511
 Sum of electronic and zero-point Energies=           -258.223823
 Sum of electronic and thermal Energies=              -258.220383
 Sum of electronic and thermal Enthalpies=            -258.219439
 Sum of electronic and thermal Free Energies=         -258.249886

                     E (Thermal)             CV                S
                      KCal/Mol        Cal/Mol-Kelvin    Cal/Mol-Kelvin
 Total                   32.012             11.119             64.083
 Electronic               0.000              0.000              0.000
 Translational            0.889              2.981             38.656
 Rotational               0.889              2.981             23.809
 Vibrational             30.235              5.158              1.618
 Vibration     1          0.953              1.042              0.458

 Normal termination of Gaussian 09 at Mon Nov 25 17:50:37 2013.
