 Gaussian 09, Revision D.01,
 Gaussian 09:  EM64L-G09RevD.01 24-Apr-2013

 -----------------------------------
 #MPW1PW91/6-31G** opt=z-matrix freq
 -----------------------------------

 ------------------------------------------------------------------
 1H-tetrazole CH2N4 casno=288948 state=1 config=1 method=25 basis=3
 ------------------------------------------------------------------
 Symbolic Z-matrix:
 Charge =  0 Multiplicity = 1

 SCF Done:  E(RmPW1PW91) =  -258.191895926     A.U. after   14 cycles
 SCF Done:  E(RmPW1PW91) =  -258.194393186     A.U. after   12 cycles
 SCF Done:  E(RmPW1PW91) =  -258.194427459     A.U. after   11 cycles
 SCF Done:  E(RmPW1PW91) =  -258.194445465     A.U. after   10 cycles
 SCF Done:  E(RmPW1PW91) =  -258.194448896     A.U. after    9 cycles
 SCF Done:  E(RmPW1PW91) =  -258.193567878     A.U. after   12 cycles
 SCF Done:  E(RmPW1PW91) =  -258.194456307     A.U. after    9 cycles
 SCF Done:  E(RmPW1PW91) =  -258.194458093     A.U. after    8 cycles
 SCF Done:  E(RmPW1PW91) =  -258.192572560     A.U. after   13 cycles
 SCF Done:  E(RmPW1PW91) =  -258.194458553     A.U. after    8 cycles
 SCF Done:  E(RmPW1PW91) =  -258.194458857     A.U. after    8 cycles
 SCF Done:  E(RmPW1PW91) =  -258.193491976     A.U. after   12 cycles
 SCF Done:  E(RmPW1PW91) =  -258.194458776     A.U. after    8 cycles
 SCF Done:  E(RmPW1PW91) =  -258.194458894     A.U. after    6 cycles
 SCF Done:  E(RmPW1PW91) =  -258.194458595     A.U. after    8 cycles
 SCF Done:  E(RmPW1PW91) =  -258.194458893     A.U. after    4 cycles
 SCF Done:  E(RmPW1PW91) =  -258.194458896     A.U. after    5 cycles
 SCF Done:  E(RmPW1PW91) =  -258.194458879     A.U. after    7 cycles
 Optimization completed.
    -- Stationary point found.
 Normal termination of Gaussian 09 at Mon Nov 25 17:51:20 2013.

 ----------------------------------------------------------------------
 #N Geom=AllCheck Guess=TCheck SCRF=Check GenChk RmPW1PW91/6-31G(d,p) F
 req
 ----------------------------------------------------------------------

 Structure from the checkpoint file:  "/tmp/rdj3/g09-15973/Gau-32150.chk"
 ------------------------------------------------------------------
 1H-tetrazole CH2N4 casno=288948 state=1 config=1 method=25 basis=3
 ------------------------------------------------------------------
 Charge =  0 Multiplicity = 1

                         Standard orientation:
 ---------------------------------------------------------------------
 Center     Atomic      Atomic             Coordinates (Angstroms)
 Number     Number       Type             X           Y           Z
 ---------------------------------------------------------------------
      1          6           0        1.064159    0.233211    0.000000
      2          7           0        0.000000    1.049124    0.000000
      3          7           0       -1.113939    0.302696    0.000000
      4          7           0       -0.719362   -0.920391    0.000000
      5          7           0        0.630766   -1.004428    0.000000
      6          1           0        2.091935    0.557449    0.000000
      7          1           0       -0.059143    2.054276    0.000000
 ---------------------------------------------------------------------

 SCF Done:  E(RmPW1PW91) =  -258.194458879     A.U. after    1 cycles

 The electronic state is 1-A'.
 Alpha  occ. eigenvalues --  -14.53058 -14.49205 -14.47394 -14.44503 -10.34170
 Alpha  occ. eigenvalues --   -1.18481  -0.98145  -0.92576  -0.70600  -0.69081
 Alpha  occ. eigenvalues --   -0.61940  -0.52036  -0.51868  -0.39844  -0.34903
 Alpha  occ. eigenvalues --   -0.32490  -0.32062  -0.30532
 Alpha virt. eigenvalues --   -0.01450   0.02433   0.06902   0.12051   0.19643
 Alpha virt. eigenvalues --    0.21035   0.29511   0.33516   0.43061   0.52525
 Alpha virt. eigenvalues --    0.53702   0.60806   0.61800   0.65873   0.68152

 Mulliken charges:
               1
     1  C    0.308253
     2  N   -0.374000
     3  N   -0.047597
     4  N   -0.081815
     5  N   -0.321197
     6  H    0.192475
     7  H    0.323882
 Sum of Mulliken charges =   0.00000

 Dipole moment (field-independent basis, Debye):
    X=              2.5217    Y=              4.7869    Z=              0.0000  Tot=              5.4105
 Quadrupole moment (field-independent basis, Debye-Ang):
   XX=            -28.4272   YY=            -25.8916   ZZ=            -28.1093
   XY=              1.8001   XZ=              0.0000   YZ=              0.0000

  Exact polarizability:  37.311   0.965  36.742   0.000   0.000  15.735
 Approx polarizability:  62.259   0.308  65.801   0.000   0.000  23.439

                      1                      2                      3
                     A"                     A"                     A"
 Frequencies --    607.7819               702.2889               751.8696
 Red. masses --      1.8170                 1.9252                 7.9494
 Frc consts  --      0.3955                 0.5594                 2.6477
 IR Inten    --     89.4975                11.0653                 9.2436

                      4                      5                      6
                     A"                     A'                     A'
 Frequencies --    865.9238               994.9923              1028.2436
 Red. masses --      1.3652                 4.3483                 5.4550
 Frc consts  --      0.6031                 2.5363                 3.3981
 IR Inten    --     17.6817                 3.2215                 1.5702

                      7                      8                      9
                     A'                     A'                     A'
 Frequencies --   1094.2137              1110.6457              1168.1277
 Red. masses --      3.1265                 4.8325                 1.9596
 Frc consts  --      2.2055                 3.5121                 1.5754
 IR Inten    --     28.0395                21.8983                11.9610

                     10                     11                     12
                     A'                     A'                     A'
 Frequencies --   1296.5791              1342.7896              1496.0663
 Red. masses --      2.5524                10.1984                 3.4204
 Frc consts  --      2.5281                10.8342                 4.5105
 IR Inten    --      1.4286                17.9910                 9.0714

                     13                     14                     15
                     A'                     A'                     A'
 Frequencies --   1542.8501              3331.5937              3714.9445
 Red. masses --      3.5551                 1.1013                 1.0840
 Frc consts  --      4.9859                 7.2019                 8.8141
 IR Inten    --     17.4734                 1.5914                99.1370

 - Thermochemistry -
 -------------------
 Temperature   298.150 Kelvin.  Pressure   1.00000 Atm.
 Atom     1 has atomic number  6 and mass  12.00000

 Molecular mass:    70.02795 amu.
 Principal axes and moments of inertia in atomic units:
                           1         2         3
     Eigenvalues --   169.88202 172.74956 342.63158
           X            0.84003   0.54255   0.00000
           Y           -0.54255   0.84003   0.00000
           Z            0.00000   0.00000   1.00000
 This molecule is an asymmetric top.
 Rotational symmetry number  1.
 Rotational temperatures (Kelvin)      0.50985     0.50138     0.25279
 Rotational constants (GHZ):          10.62350    10.44715     5.26729
 Zero-point vibrational energy     125900.4 (Joules/Mol)
                                   30.09093 (Kcal/Mol)
 Warning -- explicit consideration of   1 degrees of freedom as
           vibrations may cause significant error
 Vibrational temperatures:    874.46  1010.44  1081.77  1245.87  1431.57
          (Kelvin)           1479.41  1574.33  1597.97  1680.67  1865.49
                             1931.97  2152.50  2219.81  4793.41  5344.97

 Zero-point correction=                           0.047953 (Hartree/Particle)
 Thermal correction to Energy=                    0.051377
 Thermal correction to Enthalpy=                  0.052321
 Thermal correction to Gibbs Free Energy=         0.021888
 Sum of electronic and zero-point Energies=           -258.146506
 Sum of electronic and thermal Energies=              -258.143082
 Sum of electronic and thermal Enthalpies=            -258.142138
 Sum of electronic and thermal Free Energies=         -258.172571

                     E (Thermal)             CV                S
                      KCal/Mol        Cal/Mol-Kelvin    Cal/Mol-Kelvin
 Total                   32.239             11.014             64.051
 Electronic               0.000              0.000              0.000
 Translational            0.889              2.981             38.656
 Rotational               0.889              2.981             23.823
 Vibrational             30.462              5.053              1.572
 Vibration     1          0.967              1.015              0.436

 Normal termination of Gaussian 09 at Mon Nov 25 17:51:29 2013.
