 Gaussian 09, Revision D.01,
 Gaussian 09:  EM64L-G09RevD.01 24-Apr-2013

 ------------------------
 #MPW1PW91/3-21G opt freq
 ------------------------

 ------------------------------------------------------------------
 1H-tetrazole CH2N4 casno=288948 state=1 config=1 method=25 basis=2
 ------------------------------------------------------------------
 Symbolic Z-matrix:
 Charge =  0 Multiplicity = 1

 SCF Done:  E(RmPW1PW91) =  -256.704041104     A.U. after   14 cycles
 SCF Done:  E(RmPW1PW91) =  -256.720289309     A.U. after   15 cycles
 SCF Done:  E(RmPW1PW91) =  -256.721268031     A.U. after   13 cycles
 SCF Done:  E(RmPW1PW91) =  -256.721588007     A.U. after   12 cycles
 SCF Done:  E(RmPW1PW91) =  -256.721659696     A.U. after   10 cycles
 SCF Done:  E(RmPW1PW91) =  -256.721668205     A.U. after    9 cycles
 SCF Done:  E(RmPW1PW91) =  -256.721671478     A.U. after    9 cycles
 SCF Done:  E(RmPW1PW91) =  -256.721673167     A.U. after    9 cycles
 Optimization completed.
    -- Stationary point found.
 Normal termination of Gaussian 09 at Mon Dec 16 15:35:15 2013.

 --------------------------------------------------------------------
 #N Geom=AllCheck Guess=TCheck SCRF=Check GenChk RmPW1PW91/3-21G Freq
 --------------------------------------------------------------------

 Structure from the checkpoint file:  "/tmp/rdj3/g09-26267/Gau-27492.chk"
 ------------------------------------------------------------------
 1H-tetrazole CH2N4 casno=288948 state=1 config=1 method=25 basis=2
 ------------------------------------------------------------------
 Charge =  0 Multiplicity = 1

                         Standard orientation:
 ---------------------------------------------------------------------
 Center     Atomic      Atomic             Coordinates (Angstroms)
 Number     Number       Type             X           Y           Z
 ---------------------------------------------------------------------
      1          6           0        1.075788    0.257919    0.000000
      2          7           0        0.000000    1.078584    0.000000
      3          7           0       -1.162857    0.290364    0.000000
      4          7           0       -0.739166   -0.963081    0.000000
      5          7           0        0.690638   -1.009940    0.000000
      6          1           0        2.094540    0.594550    0.000000
      7          1           0       -0.069572    2.086446    0.000000
 ---------------------------------------------------------------------

 SCF Done:  E(RmPW1PW91) =  -256.721673167     A.U. after    1 cycles

 The electronic state is 1-A'.
 Alpha  occ. eigenvalues --  -14.45837 -14.43153 -14.41281 -14.38008 -10.29805
 Alpha  occ. eigenvalues --   -1.18429  -0.97938  -0.94546  -0.70403  -0.69470
 Alpha  occ. eigenvalues --   -0.62672  -0.51758  -0.51154  -0.38887  -0.34561
 Alpha  occ. eigenvalues --   -0.33114  -0.31760  -0.30734
 Alpha virt. eigenvalues --   -0.02857   0.01309   0.08585   0.10895   0.17536
 Alpha virt. eigenvalues --    0.20620   0.26694   0.36113   0.40134   0.68323
 Alpha virt. eigenvalues --    0.70535   0.81675   0.84348   0.93397   1.02784

 Mulliken charges:
               1
     1  C    0.330097
     2  N   -0.563380
     3  N   -0.029856
     4  N   -0.079930
     5  N   -0.347957
     6  H    0.301405
     7  H    0.389622
 Sum of Mulliken charges =   0.00000

 Dipole moment (field-independent basis, Debye):
    X=              2.5304    Y=              4.9825    Z=              0.0000  Tot=              5.5882
 Quadrupole moment (field-independent basis, Debye-Ang):
   XX=            -28.9823   YY=            -26.4214   ZZ=            -28.6154
   XY=              2.0143   XZ=              0.0000   YZ=              0.0000

  Exact polarizability:  34.568   1.226  34.137   0.000   0.000  11.326
 Approx polarizability:  62.477  -0.514  69.315   0.000   0.000  14.084

                      1                      2                      3
                     A"                     A"                     A"
 Frequencies --    655.6868               694.6178               699.6435
 Red. masses --      3.9607                 2.1169                 2.0263
 Frc consts  --      1.0033                 0.6018                 0.5844
 IR Inten    --     54.7076                32.6496                82.0317

                      4                      5                      6
                     A'                     A'                     A"
 Frequencies --    813.8325               897.2265               931.9070
 Red. masses --      9.8003                 6.1729                 1.3959
 Frc consts  --      3.8244                 2.9278                 0.7142
 IR Inten    --      9.3354                15.5249                16.2794

                      7                      8                      9
                     A'                     A'                     A'
 Frequencies --    997.6090              1025.0752              1102.7697
 Red. masses --      4.8095                 6.2822                 6.1492
 Frc consts  --      2.8202                 3.8893                 4.4060
 IR Inten    --      8.8632                 9.0481                 3.6597

                     10                     11                     12
                     A'                     A'                     A'
 Frequencies --   1163.6195              1232.1840              1387.1567
 Red. masses --      2.0452                 2.2599                 2.9378
 Frc consts  --      1.6315                 2.0216                 3.3306
 IR Inten    --     13.6549                 6.1717                 4.8695

                     13                     14                     15
                     A'                     A'                     A'
 Frequencies --   1456.4312              3353.6434              3641.8909
 Red. masses --      2.2153                 1.1004                 1.0847
 Frc consts  --      2.7686                 7.2917                 8.4761
 IR Inten    --     42.4763                 3.3886               118.2189

 - Thermochemistry -
 -------------------
 Temperature   298.150 Kelvin.  Pressure   1.00000 Atm.
 Atom     1 has atomic number  6 and mass  12.00000

 Molecular mass:    70.02795 amu.
 Principal axes and moments of inertia in atomic units:
                           1         2         3
     Eigenvalues --   179.13407 184.05912 363.19318
           X            0.99271   0.12056   0.00000
           Y           -0.12056   0.99271   0.00000
           Z            0.00000   0.00000   1.00000
 This molecule is an asymmetric top.
 Rotational symmetry number  1.
 Rotational temperatures (Kelvin)      0.48351     0.47058     0.23848
 Rotational constants (GHZ):          10.07481     9.80523     4.96909
 Zero-point vibrational energy     119945.3 (Joules/Mol)
                                   28.66762 (Kcal/Mol)
 Vibrational temperatures:    943.39   999.40  1006.63  1170.92  1290.91
          (Kelvin)           1340.80  1435.34  1474.85  1586.64  1674.19
                             1772.84  1995.81  2095.48  4825.14  5239.86

 Zero-point correction=                           0.045685 (Hartree/Particle)
 Thermal correction to Energy=                    0.049197
 Thermal correction to Enthalpy=                  0.050141
 Thermal correction to Gibbs Free Energy=         0.019517
 Sum of electronic and zero-point Energies=           -256.675988
 Sum of electronic and thermal Energies=              -256.672476
 Sum of electronic and thermal Enthalpies=            -256.671532
 Sum of electronic and thermal Free Energies=         -256.702156

                     E (Thermal)             CV                S
                      KCal/Mol        Cal/Mol-Kelvin    Cal/Mol-Kelvin
 Total                   30.871             11.758             64.454
 Electronic               0.000              0.000              0.000
 Translational            0.889              2.981             38.656
 Rotational               0.889              2.981             23.997
 Vibrational             29.094              5.796              1.801

 Optimization completed.
    -- Stationary point found.
 Normal termination of Gaussian 09 at Mon Dec 16 15:35:19 2013.
