 Gaussian 09, Revision D.01,
 Gaussian 09:  EM64L-G09RevD.01 24-Apr-2013

 -----------------------------------------------
 #MP2=FULL/aug-cc-pVTZ opt=z-matrix freq density
 -----------------------------------------------

 ------------------------------------------------------------------
 1H-tetrazole CH2N4 casno=288948 state=1 config=1 method=2 basis=18
 ------------------------------------------------------------------
 Symbolic Z-matrix:
 Charge =  0 Multiplicity = 1

 SCF Done:  E(RHF) =  -256.852218671     A.U. after   14 cycles
 E2 =    -0.1053550757D+01 EUMP2 =    -0.25790576942806D+03
 SCF Done:  E(RHF) =  -256.848498706     A.U. after   12 cycles
 E2 =    -0.1060721268D+01 EUMP2 =    -0.25790921997424D+03
 SCF Done:  E(RHF) =  -256.846825422     A.U. after   11 cycles
 E2 =    -0.1062743286D+01 EUMP2 =    -0.25790956870774D+03
 SCF Done:  E(RHF) =  -256.845884193     A.U. after   13 cycles
 E2 =    -0.1062551108D+01 EUMP2 =    -0.25790843530182D+03
 SCF Done:  E(RHF) =  -256.845984407     A.U. after   10 cycles
 E2 =    -0.1063609771D+01 EUMP2 =    -0.25790959417767D+03
 SCF Done:  E(RHF) =  -256.846206005     A.U. after    9 cycles
 E2 =    -0.1063407158D+01 EUMP2 =    -0.25790961316230D+03
 SCF Done:  E(RHF) =  -256.845729821     A.U. after   11 cycles
 E2 =    -0.1063840205D+01 EUMP2 =    -0.25790957002578D+03
 SCF Done:  E(RHF) =  -256.846137553     A.U. after    8 cycles
 E2 =    -0.1063483669D+01 EUMP2 =    -0.25790962122138D+03
 SCF Done:  E(RHF) =  -256.845978224     A.U. after   10 cycles
 E2 =    -0.1063608098D+01 EUMP2 =    -0.25790958632176D+03
 SCF Done:  E(RHF) =  -256.846159102     A.U. after    7 cycles
 E2 =    -0.1063462368D+01 EUMP2 =    -0.25790962147055D+03
 SCF Done:  E(RHF) =  -256.846234731     A.U. after   10 cycles
 E2 =    -0.1063283046D+01 EUMP2 =    -0.25790951777719D+03
 SCF Done:  E(RHF) =  -256.846171113     A.U. after    7 cycles
 E2 =    -0.1063450403D+01 EUMP2 =    -0.25790962151522D+03
 Optimization completed.
    -- Stationary point found.
 Normal termination of Gaussian 09 at Tue Nov 26 02:13:50 2013.

 ----------------------------------------------------------------------
 #N Geom=AllCheck Guess=TCheck SCRF=Check GenChk RMP2-Full/Aug-CC-pVTZ
 Freq
 ----------------------------------------------------------------------

 Structure from the checkpoint file:  "/tmp/rdj3/g09-15973/Gau-12608.chk"
 ------------------------------------------------------------------
 1H-tetrazole CH2N4 casno=288948 state=1 config=1 method=2 basis=18
 ------------------------------------------------------------------
 Charge =  0 Multiplicity = 1

                         Standard orientation:
 ---------------------------------------------------------------------
 Center     Atomic      Atomic             Coordinates (Angstroms)
 Number     Number       Type             X           Y           Z
 ---------------------------------------------------------------------
      1          6           0        1.064782    0.235853    0.000000
      2          7           0        0.000000    1.046668    0.000000
      3          7           0       -1.114789    0.316151    0.000000
      4          7           0       -0.717149   -0.930993    0.000000
      5          7           0        0.630067   -1.006985    0.000000
      6          1           0        2.084573    0.561143    0.000000
      7          1           0       -0.060168    2.049851    0.000000
 ---------------------------------------------------------------------

 SCF Done:  E(RHF) =  -256.846171113     A.U. after    1 cycles
 E2 =    -0.1063450399D+01 EUMP2 =    -0.25790962151167D+03
 E2 =    -0.1063450399D+01 EUMP2 =    -0.25790962151167D+03

 The electronic state is 1-A'.
 Alpha  occ. eigenvalues --  -15.68743 -15.66486 -15.65029 -15.60777 -11.33739
 Alpha  occ. eigenvalues --   -1.49678  -1.26379  -1.19005  -0.91307  -0.89353
 Alpha  occ. eigenvalues --   -0.80210  -0.68056  -0.67965  -0.56959  -0.48658
 Alpha  occ. eigenvalues --   -0.47168  -0.45998  -0.41512
 Alpha virt. eigenvalues --    0.01452   0.03451   0.06766   0.07193   0.09374
 Alpha virt. eigenvalues --    0.10556   0.11510   0.12002   0.12481   0.13624
 Alpha virt. eigenvalues --    0.13797   0.14919   0.16431   0.16904   0.17599

 Mulliken charges:
               1
     1  C   -0.306599
     2  N    0.208039
     3  N   -0.260360
     4  N   -0.180116
     5  N   -0.232352
     6  H    0.595612
     7  H    0.175776
 Sum of Mulliken charges =   0.00000

 Dipole moment (field-independent basis, Debye):
    X=              2.5621    Y=              4.8451    Z=              0.0000  Tot=              5.4808
 Quadrupole moment (field-independent basis, Debye-Ang):
   XX=            -29.6675   YY=            -26.9186   ZZ=            -29.0308
   XY=              1.8110   XZ=              0.0000   YZ=              0.0000

  Exact polarizability:  45.768   0.796  44.417   0.000   0.000  26.681
 Approx polarizability:  42.889   0.003  44.260   0.000   0.000  26.937

                      1                      2                      3
                     A"                     A"                     A"
 Frequencies --    651.5440               705.3283               744.8749
 Red. masses --      2.3960                 1.8124                 4.2947
 Frc consts  --      0.5993                 0.5312                 1.4039
 IR Inten    --     56.6255                15.0416                18.5552

                      4                      5                      6
                     A"                     A'                     A'
 Frequencies --    861.5449               966.4482              1012.5469
 Red. masses --      1.3746                 4.0914                 5.9222
 Frc consts  --      0.6011                 2.2515                 3.5774
 IR Inten    --     19.2835                 2.8963                 2.8606

                      7                      8                      9
                     A'                     A'                     A'
 Frequencies --   1086.9125              1116.7457              1149.2945
 Red. masses --      3.9686                 3.4083                 2.5422
 Frc consts  --      2.7623                 2.5044                 1.9785
 IR Inten    --     32.5799                13.4008                 9.2198

                     10                     11                     12
                     A'                     A'                     A'
 Frequencies --   1196.4418              1266.3250              1475.7049
 Red. masses --      4.2637                 3.0682                 2.5055
 Frc consts  --      3.5960                 2.8988                 3.2147
 IR Inten    --      2.0824                 1.1089                20.0596

                     13                     14                     15
                     A'                     A'                     A'
 Frequencies --   1489.0494              3329.3026              3670.9226
 Red. masses --      4.9288                 1.1008                 1.0843
 Frc consts  --      6.4389                 7.1887                 8.6086
 IR Inten    --      9.9052                 3.9562               115.3032

 - Thermochemistry -
 -------------------
 Temperature   298.150 Kelvin.  Pressure   1.00000 Atm.
 Atom     1 has atomic number  6 and mass  12.00000

 Molecular mass:    70.02795 amu.
 Principal axes and moments of inertia in atomic units:
                           1         2         3
     Eigenvalues --   170.22281 173.64923 343.87203
           X           -0.66660   0.74542   0.00000
           Y            0.74542   0.66660   0.00000
           Z            0.00000   0.00000   1.00000
 This molecule is an asymmetric top.
 Rotational symmetry number  1.
 Rotational temperatures (Kelvin)      0.50883     0.49879     0.25188
 Rotational constants (GHZ):          10.60223    10.39303     5.24829
 Zero-point vibrational energy     123951.0 (Joules/Mol)
                                   29.62500 (Kcal/Mol)
 Vibrational temperatures:    937.43  1014.81  1071.71  1239.57  1390.50
          (Kelvin)           1456.83  1563.82  1606.75  1653.58  1721.41
                             1821.96  2123.21  2142.41  4790.12  5281.63

 Zero-point correction=                           0.047210 (Hartree/Particle)
 Thermal correction to Energy=                    0.050633
 Thermal correction to Enthalpy=                  0.051577
 Thermal correction to Gibbs Free Energy=         0.021146
 Sum of electronic and zero-point Energies=           -257.862411
 Sum of electronic and thermal Energies=              -257.858988
 Sum of electronic and thermal Enthalpies=            -257.858044
 Sum of electronic and thermal Free Energies=         -257.888476

                     E (Thermal)             CV                S
                      KCal/Mol        Cal/Mol-Kelvin    Cal/Mol-Kelvin
 Total                   31.773             11.115             64.049
 Electronic               0.000              0.000              0.000
 Translational            0.889              2.981             38.656
 Rotational               0.889              2.981             23.834
 Vibrational             29.995              5.153              1.558

 Optimization completed.
    -- Stationary point found.
 Normal termination of Gaussian 09 at Tue Nov 26 03:37:37 2013.
