 Gaussian 09, Revision D.01,
 Gaussian 09:  EM64L-G09RevD.01 24-Apr-2013

 -----------------------------------------------
 #MP2=FULL/aug-cc-pVDZ opt=z-matrix freq density
 -----------------------------------------------

 ------------------------------------------------------------------
 1H-tetrazole CH2N4 casno=288948 state=1 config=1 method=2 basis=17
 ------------------------------------------------------------------
 Symbolic Z-matrix:
 Charge =  0 Multiplicity = 1

 SCF Done:  E(RHF) =  -256.797933873     A.U. after   15 cycles
 E2 =    -0.8215273517D+00 EUMP2 =    -0.25761946122425D+03
 SCF Done:  E(RHF) =  -256.791096405     A.U. after   13 cycles
 E2 =    -0.8373540342D+00 EUMP2 =    -0.25762845043944D+03
 SCF Done:  E(RHF) =  -256.788306665     A.U. after   13 cycles
 E2 =    -0.8406433321D+00 EUMP2 =    -0.25762894999747D+03
 SCF Done:  E(RHF) =  -256.786795973     A.U. after   14 cycles
 E2 =    -0.8393432844D+00 EUMP2 =    -0.25762613925771D+03
 SCF Done:  E(RHF) =  -256.787174954     A.U. after   12 cycles
 E2 =    -0.8417758834D+00 EUMP2 =    -0.25762895083757D+03
 SCF Done:  E(RHF) =  -256.787101622     A.U. after   11 cycles
 E2 =    -0.8418324554D+00 EUMP2 =    -0.25762893407710D+03
 SCF Done:  E(RHF) =  -256.787362767     A.U. after   12 cycles
 E2 =    -0.8416626122D+00 EUMP2 =    -0.25762902537952D+03
 SCF Done:  E(RHF) =  -256.786963945     A.U. after   13 cycles
 E2 =    -0.8420233574D+00 EUMP2 =    -0.25762898730204D+03
 SCF Done:  E(RHF) =  -256.787272479     A.U. after   11 cycles
 E2 =    -0.8417660693D+00 EUMP2 =    -0.25762903854846D+03
 SCF Done:  E(RHF) =  -256.787102407     A.U. after   13 cycles
 E2 =    -0.8418964225D+00 EUMP2 =    -0.25762899882941D+03
 SCF Done:  E(RHF) =  -256.787305672     A.U. after    8 cycles
 E2 =    -0.8417347249D+00 EUMP2 =    -0.25762904039649D+03
 SCF Done:  E(RHF) =  -256.787546619     A.U. after   10 cycles
 E2 =    -0.8414867149D+00 EUMP2 =    -0.25762903333404D+03
 SCF Done:  E(RHF) =  -256.787337776     A.U. after    8 cycles
 E2 =    -0.8417026598D+00 EUMP2 =    -0.25762904043584D+03
 Optimization completed.
    -- Stationary point found.
 Normal termination of Gaussian 09 at Mon Nov 25 18:03:53 2013.

 ----------------------------------------------------------------------
 #N Geom=AllCheck Guess=TCheck SCRF=Check GenChk RMP2-Full/Aug-CC-pVDZ
 Freq
 ----------------------------------------------------------------------

 Structure from the checkpoint file:  "/tmp/rdj3/g09-15973/Gau-11069.chk"
 ------------------------------------------------------------------
 1H-tetrazole CH2N4 casno=288948 state=1 config=1 method=2 basis=17
 ------------------------------------------------------------------
 Charge =  0 Multiplicity = 1

                         Standard orientation:
 ---------------------------------------------------------------------
 Center     Atomic      Atomic             Coordinates (Angstroms)
 Number     Number       Type             X           Y           Z
 ---------------------------------------------------------------------
      1          6           0        1.076886    0.239061    0.000000
      2          7           0        0.000000    1.058981    0.000000
      3          7           0       -1.129136    0.322250    0.000000
      4          7           0       -0.725192   -0.943018    0.000000
      5          7           0        0.637890   -1.020509    0.000000
      6          1           0        2.109845    0.569922    0.000000
      7          1           0       -0.056094    2.071781    0.000000
 ---------------------------------------------------------------------

 SCF Done:  E(RHF) =  -256.787337776     A.U. after    1 cycles
 E2 =    -0.8417026591D+00 EUMP2 =    -0.25762904043512D+03
 E2 =    -0.8417026591D+00 EUMP2 =    -0.25762904043512D+03

 The electronic state is 1-A'.
 Alpha  occ. eigenvalues --  -15.69657 -15.67675 -15.66326 -15.62161 -11.35193
 Alpha  occ. eigenvalues --   -1.48500  -1.25950  -1.18583  -0.91082  -0.88958
 Alpha  occ. eigenvalues --   -0.79568  -0.67532  -0.67066  -0.56795  -0.48917
 Alpha  occ. eigenvalues --   -0.47488  -0.45618  -0.41175
 Alpha virt. eigenvalues --    0.01895   0.04126   0.08055   0.08625   0.10908
 Alpha virt. eigenvalues --    0.11930   0.12693   0.14259   0.15590   0.15967
 Alpha virt. eigenvalues --    0.16653   0.17909   0.19772   0.19890   0.21484

 Mulliken charges:
               1
     1  C    0.904860
     2  N   -0.010276
     3  N   -0.178527
     4  N   -0.287094
     5  N   -0.301538
     6  H   -0.122674
     7  H   -0.004751
 Sum of Mulliken charges =   0.00000

 Dipole moment (field-independent basis, Debye):
    X=              2.5907    Y=              4.8807    Z=              0.0000  Tot=              5.5257
 Quadrupole moment (field-independent basis, Debye-Ang):
   XX=            -29.9837   YY=            -27.2306   ZZ=            -29.6421
   XY=              1.8559   XZ=              0.0000   YZ=              0.0000

  Exact polarizability:  46.902   0.885  45.421   0.000   0.000  26.979
 Approx polarizability:  44.169  -0.060  45.633   0.000   0.000  27.327

                      1                      2                      3
                     A"                     A"                     A"
 Frequencies --    613.3172               691.7492               725.7824
 Red. masses --      2.2854                 1.8350                 5.0133
 Frc consts  --      0.5065                 0.5173                 1.5559
 IR Inten    --     59.4509                13.5422                13.9026

                      4                      5                      6
                     A"                     A'                     A'
 Frequencies --    808.9356               949.9187               996.4946
 Red. masses --      1.3374                 4.1725                 6.0645
 Frc consts  --      0.5156                 2.2183                 3.5481
 IR Inten    --     26.2117                 2.5101                 2.5652

                      7                      8                      9
                     A'                     A'                     A'
 Frequencies --   1071.5740              1102.9380              1128.7657
 Red. masses --      4.1369                 3.5454                 3.1484
 Frc consts  --      2.7988                 2.5411                 2.3634
 IR Inten    --     31.9218                12.0352                10.1471

                     10                     11                     12
                     A'                     A'                     A'
 Frequencies --   1172.5837              1248.3777              1463.8045
 Red. masses --      2.9702                 3.1812                 2.6559
 Frc consts  --      2.4062                 2.9210                 3.3530
 IR Inten    --      1.2131                 1.1534                16.7193

                     13                     14                     15
                     A'                     A'                     A'
 Frequencies --   1478.8760              3332.4349              3653.9227
 Red. masses --      4.1282                 1.1013                 1.0851
 Frc consts  --      5.3196                 7.2056                 8.5356
 IR Inten    --     14.3083                 3.3403               109.8883

 - Thermochemistry -
 -------------------
 Temperature   298.150 Kelvin.  Pressure   1.00000 Atm.
 Atom     1 has atomic number  6 and mass  12.00000

 Molecular mass:    70.02795 amu.
 Principal axes and moments of inertia in atomic units:
                           1         2         3
     Eigenvalues --   174.31789 178.13218 352.45007
           X           -0.64728   0.76225   0.00000
           Y            0.76225   0.64728   0.00000
           Z            0.00000   0.00000   1.00000
 This molecule is an asymmetric top.
 Rotational symmetry number  1.
 Rotational temperatures (Kelvin)      0.49687     0.48623     0.24575
 Rotational constants (GHZ):          10.35316    10.13147     5.12056
 Zero-point vibrational energy     122255.2 (Joules/Mol)
                                   29.21970 (Kcal/Mol)
 Warning -- explicit consideration of   1 degrees of freedom as
           vibrations may cause significant error
 Vibrational temperatures:    882.43   995.27  1044.24  1163.88  1366.72
          (Kelvin)           1433.73  1541.75  1586.88  1624.04  1687.08
                             1796.13  2106.09  2127.77  4794.62  5257.17

 Zero-point correction=                           0.046565 (Hartree/Particle)
 Thermal correction to Energy=                    0.050045
 Thermal correction to Enthalpy=                  0.050989
 Thermal correction to Gibbs Free Energy=         0.020444
 Sum of electronic and zero-point Energies=           -257.582476
 Sum of electronic and thermal Energies=              -257.578996
 Sum of electronic and thermal Enthalpies=            -257.578051
 Sum of electronic and thermal Free Energies=         -257.608596

                     E (Thermal)             CV                S
                      KCal/Mol        Cal/Mol-Kelvin    Cal/Mol-Kelvin
 Total                   31.404             11.447             64.287
 Electronic               0.000              0.000              0.000
 Translational            0.889              2.981             38.656
 Rotational               0.889              2.981             23.908
 Vibrational             29.626              5.485              1.724
 Vibration     1          0.973              1.004              0.427

 Optimization completed.
    -- Stationary point found.
 Normal termination of Gaussian 09 at Mon Nov 25 18:07:15 2013.
