 Gaussian 09, Revision D.01,
 Gaussian 09:  EM64L-G09RevD.01 24-Apr-2013

 ------------------------------------------------
 #MP2=Full/6-31G(2df,p) opt=z-matrix freq density
 ------------------------------------------------

 ------------------------------------------------------------------
 1H-tetrazole CH2N4 casno=288948 state=1 config=1 method=2 basis=19
 ------------------------------------------------------------------
 Symbolic Z-matrix:
 Charge =  0 Multiplicity = 1

 SCF Done:  E(RHF) =  -256.781975392     A.U. after   14 cycles
 E2 =    -0.9512000519D+00 EUMP2 =    -0.25773317544344D+03
 SCF Done:  E(RHF) =  -256.777521167     A.U. after   13 cycles
 E2 =    -0.9602001163D+00 EUMP2 =    -0.25773772128303D+03
 SCF Done:  E(RHF) =  -256.775622214     A.U. after   12 cycles
 E2 =    -0.9624742754D+00 EUMP2 =    -0.25773809648892D+03
 SCF Done:  E(RHF) =  -256.774600701     A.U. after   13 cycles
 E2 =    -0.9619674438D+00 EUMP2 =    -0.25773656814471D+03
 SCF Done:  E(RHF) =  -256.774830107     A.U. after   11 cycles
 E2 =    -0.9633047210D+00 EUMP2 =    -0.25773813482844D+03
 SCF Done:  E(RHF) =  -256.774879407     A.U. after   11 cycles
 E2 =    -0.9632474890D+00 EUMP2 =    -0.25773812689647D+03
 SCF Done:  E(RHF) =  -256.774989024     A.U. after    9 cycles
 E2 =    -0.9631667801D+00 EUMP2 =    -0.25773815580402D+03
 SCF Done:  E(RHF) =  -256.775173015     A.U. after   11 cycles
 E2 =    -0.9629565221D+00 EUMP2 =    -0.25773812953689D+03
 SCF Done:  E(RHF) =  -256.775023519     A.U. after    8 cycles
 E2 =    -0.9631329626D+00 EUMP2 =    -0.25773815648191D+03
 SCF Done:  E(RHF) =  -256.775091707     A.U. after   10 cycles
 E2 =    -0.9630331346D+00 EUMP2 =    -0.25773812484133D+03
 E2 =    -0.9631261717D+00 EUMP2 =    -0.25773815666025D+03
 SCF Done:  E(RHF) =  -256.775149847     A.U. after    9 cycles
 E2 =    -0.9630038442D+00 EUMP2 =    -0.25773815369102D+03
 SCF Done:  E(RHF) =  -256.775014942     A.U. after    9 cycles
 E2 =    -0.9631408848D+00 EUMP2 =    -0.25773815582644D+03
 SCF Done:  E(RHF) =  -256.775030321     A.U. after    1 cycles
 E2 =    -0.9631263538D+00 EUMP2 =    -0.25773815667530D+03
 SCF Done:  E(RHF) =  -256.775025042     A.U. after    8 cycles
 E2 =    -0.9631313288D+00 EUMP2 =    -0.25773815637118D+03
 SCF Done:  E(RHF) =  -256.775031020     A.U. after    7 cycles
 E2 =    -0.9631256580D+00 EUMP2 =    -0.25773815667830D+03
 SCF Done:  E(RHF) =  -256.775056870     A.U. after    8 cycles
 E2 =    -0.9630997415D+00 EUMP2 =    -0.25773815661123D+03
 SCF Done:  E(RHF) =  -256.775030226     A.U. after    8 cycles
 E2 =    -0.9631264024D+00 EUMP2 =    -0.25773815662893D+03
 SCF Done:  E(RHF) =  -256.775014404     A.U. after    9 cycles
 E2 =    -0.9631418241D+00 EUMP2 =    -0.25773815622779D+03
 SCF Done:  E(RHF) =  -256.775030530     A.U. after    5 cycles
 E2 =    -0.9631261607D+00 EUMP2 =    -0.25773815669080D+03
 Optimization completed.
    -- Stationary point found.
 Normal termination of Gaussian 09 at Tue Nov 26 03:47:43 2013.

 ----------------------------------------------------------------------
 #N Geom=AllCheck Guess=TCheck SCRF=Check GenChk RMP2-Full/6-31G(2df,p)
  Freq
 ----------------------------------------------------------------------

 Structure from the checkpoint file:  "/tmp/rdj3/g09-15973/Gau-14988.chk"
 ------------------------------------------------------------------
 1H-tetrazole CH2N4 casno=288948 state=1 config=1 method=2 basis=19
 ------------------------------------------------------------------
 Charge =  0 Multiplicity = 1

                         Standard orientation:
 ---------------------------------------------------------------------
 Center     Atomic      Atomic             Coordinates (Angstroms)
 Number     Number       Type             X           Y           Z
 ---------------------------------------------------------------------
      1          6           0        1.065191    0.236991    0.000000
      2          7           0        0.000000    1.049797    0.000000
      3          7           0       -1.118091    0.317107    0.000000
      4          7           0       -0.717352   -0.934403    0.000000
      5          7           0        0.632861   -1.010183    0.000000
      6          1           0        2.087447    0.566845    0.000000
      7          1           0       -0.060522    2.054984    0.000000
 ---------------------------------------------------------------------

 SCF Done:  E(RHF) =  -256.775030530     A.U. after    1 cycles
 E2 =    -0.9631261572D+00 EUMP2 =    -0.25773815668737D+03
 E2 =    -0.9631261572D+00 EUMP2 =    -0.25773815668737D+03

 The electronic state is 1-A'.
 Alpha  occ. eigenvalues --  -15.68572 -15.66168 -15.64704 -15.60543 -11.33778
 Alpha  occ. eigenvalues --   -1.48617  -1.25568  -1.18121  -0.90528  -0.88511
 Alpha  occ. eigenvalues --   -0.79371  -0.67186  -0.67084  -0.56167  -0.47912
 Alpha  occ. eigenvalues --   -0.46426  -0.45218  -0.40715
 Alpha virt. eigenvalues --    0.14054   0.18911   0.19757   0.25439   0.35405
 Alpha virt. eigenvalues --    0.38543   0.43070   0.45178   0.58662   0.64328
 Alpha virt. eigenvalues --    0.65654   0.67525   0.72321   0.74892   0.76414

 Mulliken charges:
               1
     1  C    0.005624
     2  N   -0.208370
     3  N   -0.063888
     4  N   -0.092075
     5  N   -0.174050
     6  H    0.197862
     7  H    0.334896
 Sum of Mulliken charges =   0.00000

 Dipole moment (field-independent basis, Debye):
    X=              2.5054    Y=              4.7891    Z=              0.0000  Tot=              5.4048
 Quadrupole moment (field-independent basis, Debye-Ang):
   XX=            -28.8679   YY=            -25.9720   ZZ=            -28.3526
   XY=              1.7151   XZ=              0.0000   YZ=              0.0000

  Exact polarizability:  38.653   1.229  37.172   0.000   0.000  18.276
 Approx polarizability:  39.612  -0.035  41.244   0.000   0.000  21.005

                      1                      2                      3
                     A"                     A"                     A"
 Frequencies --    640.1040               710.1690               752.2242
 Red. masses --      2.1644                 1.8054                 5.6331
 Frc consts  --      0.5225                 0.5365                 1.8780
 IR Inten    --     63.6024                14.4759                13.8138

                      4                      5                      6
                     A"                     A'                     A'
 Frequencies --    857.0367               976.3230              1016.5056
 Red. masses --      1.3585                 4.3651                 5.6215
 Frc consts  --      0.5879                 2.4515                 3.4223
 IR Inten    --     17.1086                 2.8736                 5.3796

                      7                      8                      9
                     A'                     A'                     A'
 Frequencies --   1107.0776              1135.8719              1160.9975
 Red. masses --      3.1345                 4.3936                 2.5216
 Frc consts  --      2.2635                 3.3399                 2.0026
 IR Inten    --     32.5109                10.4739                11.7388

                     10                     11                     12
                     A'                     A'                     A'
 Frequencies --   1212.2647              1275.7890              1481.6463
 Red. masses --      4.0671                 3.2269                 2.4464
 Frc consts  --      3.5215                 3.0945                 3.1642
 IR Inten    --      1.4872                 1.2505                24.9099

                     13                     14                     15
                     A'                     A'                     A'
 Frequencies --   1494.9094              3356.4372              3707.2234
 Red. masses --      5.0038                 1.1006                 1.0845
 Frc consts  --      6.5884                 7.3050                 8.7816
 IR Inten    --      6.7815                 3.9212               120.9530

 - Thermochemistry -
 -------------------
 Temperature   298.150 Kelvin.  Pressure   1.00000 Atm.
 Atom     1 has atomic number  6 and mass  12.00000

 Molecular mass:    70.02795 amu.
 Principal axes and moments of inertia in atomic units:
                           1         2         3
     Eigenvalues --   170.94607 174.68388 345.62996
           X           -0.62050   0.78421   0.00000
           Y            0.78421   0.62050   0.00000
           Z            0.00000   0.00000   1.00000
 This molecule is an asymmetric top.
 Rotational symmetry number  1.
 Rotational temperatures (Kelvin)      0.50667     0.49583     0.25060
 Rotational constants (GHZ):          10.55737    10.33147     5.22160
 Zero-point vibrational energy     124917.5 (Joules/Mol)
                                   29.85600 (Kcal/Mol)
 Vibrational temperatures:    920.97  1021.77  1082.28  1233.08  1404.71
          (Kelvin)           1462.52  1592.84  1634.26  1670.41  1744.18
                             1835.57  2131.76  2150.84  4829.16  5333.86

 Zero-point correction=                           0.047579 (Hartree/Particle)
 Thermal correction to Energy=                    0.050995
 Thermal correction to Enthalpy=                  0.051939
 Thermal correction to Gibbs Free Energy=         0.021508
 Sum of electronic and zero-point Energies=           -257.690578
 Sum of electronic and thermal Energies=              -257.687162
 Sum of electronic and thermal Enthalpies=            -257.686218
 Sum of electronic and thermal Free Energies=         -257.716649

                     E (Thermal)             CV                S
                      KCal/Mol        Cal/Mol-Kelvin    Cal/Mol-Kelvin
 Total                   32.000             11.047             64.048
 Electronic               0.000              0.000              0.000
 Translational            0.889              2.981             38.656
 Rotational               0.889              2.981             23.849
 Vibrational             30.222              5.085              1.543

 Optimization completed.
    -- Stationary point found.
 Normal termination of Gaussian 09 at Tue Nov 26 03:53:56 2013.
