 Gaussian 09, Revision D.01,
 Gaussian 09:  EM64L-G09RevD.01 24-Apr-2013

 ------------------------------------------
 #MP2=FUll/6-31G* opt=z-matrix freq density
 ------------------------------------------

 -----------------------------------------------------------------
 1H-tetrazole CH2N4 casno=288948 state=1 config=1 method=2 basis=1
 -----------------------------------------------------------------
 Symbolic Z-matrix:
 Charge =  0 Multiplicity = 1

 SCF Done:  E(RHF) =  -256.754076285     A.U. after   15 cycles
 E2 =    -0.7928445395D+00 EUMP2 =    -0.25754692082486D+03
 SCF Done:  E(RHF) =  -256.747897478     A.U. after   13 cycles
 E2 =    -0.8060857237D+00 EUMP2 =    -0.25755398320162D+03
 SCF Done:  E(RHF) =  -256.745856858     A.U. after   13 cycles
 E2 =    -0.8085181150D+00 EUMP2 =    -0.25755437497309D+03
 SCF Done:  E(RHF) =  -256.745290753     A.U. after   13 cycles
 E2 =    -0.8090219523D+00 EUMP2 =    -0.25755431270487D+03
 SCF Done:  E(RHF) =  -256.745068460     A.U. after   11 cycles
 E2 =    -0.8093547252D+00 EUMP2 =    -0.25755442318550D+03
 SCF Done:  E(RHF) =  -256.744355097     A.U. after   12 cycles
 E2 =    -0.8096950006D+00 EUMP2 =    -0.25755405009807D+03
 SCF Done:  E(RHF) =  -256.744952503     A.U. after   10 cycles
 E2 =    -0.8094753889D+00 EUMP2 =    -0.25755442789168D+03
 SCF Done:  E(RHF) =  -256.744754407     A.U. after   12 cycles
 E2 =    -0.8096673613D+00 EUMP2 =    -0.25755442176872D+03
 SCF Done:  E(RHF) =  -256.744973500     A.U. after    9 cycles
 E2 =    -0.8094547631D+00 EUMP2 =    -0.25755442826268D+03
 SCF Done:  E(RHF) =  -256.744830539     A.U. after   11 cycles
 E2 =    -0.8095892324D+00 EUMP2 =    -0.25755441977143D+03
 SCF Done:  E(RHF) =  -256.744967058     A.U. after    8 cycles
 E2 =    -0.8094614438D+00 EUMP2 =    -0.25755442850147D+03
 SCF Done:  E(RHF) =  -256.744974133     A.U. after   10 cycles
 E2 =    -0.8094489458D+00 EUMP2 =    -0.25755442307919D+03
 SCF Done:  E(RHF) =  -256.744974529     A.U. after    7 cycles
 E2 =    -0.8094539900D+00 EUMP2 =    -0.25755442851896D+03
 SCF Done:  E(RHF) =  -256.744980923     A.U. after    7 cycles
 E2 =    -0.8094476000D+00 EUMP2 =    -0.25755442852322D+03
 Optimization completed.
    -- Stationary point found.
 Normal termination of Gaussian 09 at Tue Nov 26 03:54:51 2013.

 ----------------------------------------------------------------------
 #N Geom=AllCheck Guess=TCheck SCRF=Check GenChk RMP2-Full/6-31G(d) Fre
 q
 ----------------------------------------------------------------------

 Structure from the checkpoint file:  "/tmp/rdj3/g09-15973/Gau-17225.chk"
 -----------------------------------------------------------------
 1H-tetrazole CH2N4 casno=288948 state=1 config=1 method=2 basis=1
 -----------------------------------------------------------------
 Charge =  0 Multiplicity = 1

                         Standard orientation:
 ---------------------------------------------------------------------
 Center     Atomic      Atomic             Coordinates (Angstroms)
 Number     Number       Type             X           Y           Z
 ---------------------------------------------------------------------
      1          6           0        1.071375    0.239157    0.000000
      2          7           0        0.000000    1.054884    0.000000
      3          7           0       -1.126795    0.317121    0.000000
      4          7           0       -0.721262   -0.940265    0.000000
      5          7           0        0.638597   -1.013178    0.000000
      6          1           0        2.099257    0.567954    0.000000
      7          1           0       -0.061286    2.067163    0.000000
 ---------------------------------------------------------------------

 SCF Done:  E(RHF) =  -256.744980923     A.U. after    1 cycles
 E2 =    -0.8094475979D+00 EUMP2 =    -0.25755442852119D+03
 E2 =    -0.8094475979D+00 EUMP2 =    -0.25755442852119D+03

 The electronic state is 1-A'.
 Alpha  occ. eigenvalues --  -15.69395 -15.67048 -15.65420 -15.61220 -11.34355
 Alpha  occ. eigenvalues --   -1.48545  -1.25636  -1.18524  -0.90754  -0.88726
 Alpha  occ. eigenvalues --   -0.79624  -0.67368  -0.67057  -0.56456  -0.48285
 Alpha  occ. eigenvalues --   -0.46893  -0.45358  -0.41078
 Alpha virt. eigenvalues --    0.13380   0.18424   0.19473   0.25059   0.36354
 Alpha virt. eigenvalues --    0.38421   0.46238   0.49574   0.64249   0.73606
 Alpha virt. eigenvalues --    0.73957   0.82334   0.82641   0.88850   0.91491

 Mulliken charges:
               1
     1  C    0.194739
     2  N   -0.432646
     3  N   -0.038920
     4  N   -0.093517
     5  N   -0.273391
     6  H    0.234561
     7  H    0.409175
 Sum of Mulliken charges =   0.00000

 Dipole moment (field-independent basis, Debye):
    X=              2.5823    Y=              4.9559    Z=              0.0000  Tot=              5.5884
 Quadrupole moment (field-independent basis, Debye-Ang):
   XX=            -29.1862   YY=            -26.3197   ZZ=            -28.6096
   XY=              1.7725   XZ=              0.0000   YZ=              0.0000

  Exact polarizability:  37.459   1.312  36.133   0.000   0.000  15.367
 Approx polarizability:  38.378  -0.140  40.402   0.000   0.000  16.877

                      1                      2                      3
                     A"                     A"                     A"
 Frequencies --    612.6161               700.3154               737.4576
 Red. masses --      2.3917                 1.8685                 4.8363
 Frc consts  --      0.5289                 0.5399                 1.5497
 IR Inten    --     73.1071                17.5132                16.0282

                      4                      5                      6
                     A"                     A'                     A'
 Frequencies --    815.8134               972.3595              1014.3534
 Red. masses --      1.2995                 4.7475                 6.0959
 Frc consts  --      0.5096                 2.6446                 3.6954
 IR Inten    --     30.7609                 2.8349                 3.6439

                      7                      8                      9
                     A'                     A'                     A'
 Frequencies --   1096.8496              1120.9479              1160.3456
 Red. masses --      4.2412                 4.1297                 2.6520
 Frc consts  --      3.0063                 3.0573                 2.1038
 IR Inten    --     31.1854                10.5103                16.8182

                     10                     11                     12
                     A'                     A'                     A'
 Frequencies --   1207.2988              1280.0397              1494.8693
 Red. masses --      3.1594                 2.9135                 2.4091
 Frc consts  --      2.7132                 2.8127                 3.1718
 IR Inten    --      1.6879                 2.1908                28.4738

                     13                     14                     15
                     A'                     A'                     A'
 Frequencies --   1506.6481              3351.3607              3662.0337
 Red. masses --      4.7493                 1.1009                 1.0847
 Frc consts  --      6.3519                 7.2853                 8.5707
 IR Inten    --      8.0065                 2.5001               114.5968

 - Thermochemistry -
 -------------------
 Temperature   298.150 Kelvin.  Pressure   1.00000 Atm.
 Atom     1 has atomic number  6 and mass  12.00000

 Molecular mass:    70.02795 amu.
 Principal axes and moments of inertia in atomic units:
                           1         2         3
     Eigenvalues --   173.03864 176.57094 349.60958
           X           -0.69615   0.71790   0.00000
           Y            0.71790   0.69615   0.00000
           Z            0.00000   0.00000   1.00000
 This molecule is an asymmetric top.
 Rotational symmetry number  1.
 Rotational temperatures (Kelvin)      0.50055     0.49053     0.24774
 Rotational constants (GHZ):          10.42970    10.22105     5.16216
 Zero-point vibrational energy     124012.7 (Joules/Mol)
                                   29.63975 (Kcal/Mol)
 Warning -- explicit consideration of   1 degrees of freedom as
           vibrations may cause significant error
 Vibrational temperatures:    881.42  1007.60  1061.04  1173.77  1399.01
          (Kelvin)           1459.43  1578.12  1612.79  1669.48  1737.03
                             1841.69  2150.78  2167.73  4821.85  5268.84

 Zero-point correction=                           0.047234 (Hartree/Particle)
 Thermal correction to Energy=                    0.050687
 Thermal correction to Enthalpy=                  0.051631
 Thermal correction to Gibbs Free Energy=         0.021133
 Sum of electronic and zero-point Energies=           -257.507195
 Sum of electronic and thermal Energies=              -257.503742
 Sum of electronic and thermal Enthalpies=            -257.502798
 Sum of electronic and thermal Free Energies=         -257.533296

                     E (Thermal)             CV                S
                      KCal/Mol        Cal/Mol-Kelvin    Cal/Mol-Kelvin
 Total                   31.806             11.235             64.188
 Electronic               0.000              0.000              0.000
 Translational            0.889              2.981             38.656
 Rotational               0.889              2.981             23.883
 Vibrational             30.029              5.274              1.649
 Vibration     1          0.972              1.005              0.428

 Optimization completed.
    -- Stationary point found.
 Normal termination of Gaussian 09 at Tue Nov 26 03:55:27 2013.
