 Gaussian 09, Revision D.01,
 Gaussian 09:  EM64L-G09RevD.01 24-Apr-2013

 ------------------------------------------
 #MP2=FULL/STO-3G opt=z-matrix freq density
 ------------------------------------------

 ------------------------------------------------------------------
 1H-tetrazole CH2N4 casno=288948 state=1 config=1 method=2 basis=20
 ------------------------------------------------------------------
 Symbolic Z-matrix:
 Charge =  0 Multiplicity = 1

 SCF Done:  E(RHF) =  -253.451824229     A.U. after   14 cycles
 E2 =    -0.2860071224D+00 EUMP2 =    -0.25373783135107D+03
 SCF Done:  E(RHF) =  -253.468723757     A.U. after   14 cycles
 E2 =    -0.3243037963D+00 EUMP2 =    -0.25379302755326D+03
 SCF Done:  E(RHF) =  -253.453513442     A.U. after   14 cycles
 E2 =    -0.3448831713D+00 EUMP2 =    -0.25379839661292D+03
 SCF Done:  E(RHF) =  -253.453477484     A.U. after   14 cycles
 E2 =    -0.3464836840D+00 EUMP2 =    -0.25379996116833D+03
 SCF Done:  E(RHF) =  -253.452600524     A.U. after   13 cycles
 E2 =    -0.3476747710D+00 EUMP2 =    -0.25380027529479D+03
 SCF Done:  E(RHF) =  -253.452047459     A.U. after   12 cycles
 E2 =    -0.3482526193D+00 EUMP2 =    -0.25380030007863D+03
 SCF Done:  E(RHF) =  -253.451692268     A.U. after   12 cycles
 E2 =    -0.3486188543D+00 EUMP2 =    -0.25380031112229D+03
 SCF Done:  E(RHF) =  -253.451506082     A.U. after   12 cycles
 E2 =    -0.3488009861D+00 EUMP2 =    -0.25380030706819D+03
 SCF Done:  E(RHF) =  -253.451652132     A.U. after   11 cycles
 E2 =    -0.3486625716D+00 EUMP2 =    -0.25380031470352D+03
 SCF Done:  E(RHF) =  -253.451723697     A.U. after   11 cycles
 E2 =    -0.3485910998D+00 EUMP2 =    -0.25380031479662D+03
 SCF Done:  E(RHF) =  -253.451712931     A.U. after   10 cycles
 E2 =    -0.3486021082D+00 EUMP2 =    -0.25380031503903D+03
 SCF Done:  E(RHF) =  -253.450308620     A.U. after   13 cycles
 E2 =    -0.3494744551D+00 EUMP2 =    -0.25379978307475D+03
 SCF Done:  E(RHF) =  -253.451723092     A.U. after   10 cycles
 E2 =    -0.3485919785D+00 EUMP2 =    -0.25380031507021D+03
 Optimization completed.
    -- Stationary point found.
 Normal termination of Gaussian 09 at Tue Nov 26 03:55:46 2013.

 ---------------------------------------------------------------------
 #N Geom=AllCheck Guess=TCheck SCRF=Check GenChk RMP2-Full/STO-3G Freq
 ---------------------------------------------------------------------

 Structure from the checkpoint file:  "/tmp/rdj3/g09-15973/Gau-18846.chk"
 ------------------------------------------------------------------
 1H-tetrazole CH2N4 casno=288948 state=1 config=1 method=2 basis=20
 ------------------------------------------------------------------
 Charge =  0 Multiplicity = 1

                         Standard orientation:
 ---------------------------------------------------------------------
 Center     Atomic      Atomic             Coordinates (Angstroms)
 Number     Number       Type             X           Y           Z
 ---------------------------------------------------------------------
      1          6           0        1.107323    0.255982    0.000000
      2          7           0        0.000000    1.105574    0.000000
      3          7           0       -1.200680    0.333738    0.000000
      4          7           0       -0.757507   -0.999927    0.000000
      5          7           0        0.707224   -1.055727    0.000000
      6          1           0        2.141944    0.625446    0.000000
      7          1           0       -0.029144    2.153057    0.000000
 ---------------------------------------------------------------------

 SCF Done:  E(RHF) =  -253.451723092     A.U. after    1 cycles
 E2 =    -0.3485919784D+00 EUMP2 =    -0.25380031507005D+03
 E2 =    -0.3485919784D+00 EUMP2 =    -0.25380031507005D+03

 The electronic state is 1-A'.
 Alpha  occ. eigenvalues --  -15.48085 -15.44076 -15.41039 -15.37806 -11.15308
 Alpha  occ. eigenvalues --   -1.35941  -1.15408  -1.09853  -0.82184  -0.79739
 Alpha  occ. eigenvalues --   -0.70862  -0.57412  -0.57087  -0.46780  -0.39949
 Alpha  occ. eigenvalues --   -0.38440  -0.35936  -0.33444
 Alpha virt. eigenvalues --    0.20583   0.27066   0.46159   0.48289   0.58741
 Alpha virt. eigenvalues --    0.60919   0.61840   0.79990   0.85895

 Mulliken charges:
               1
     1  C    0.073321
     2  N   -0.178247
     3  N   -0.034657
     4  N   -0.064651
     5  N   -0.143822
     6  H    0.104751
     7  H    0.243305
 Sum of Mulliken charges =   0.00000

 Dipole moment (field-independent basis, Debye):
    X=              1.9906    Y=              4.3685    Z=              0.0000  Tot=              4.8007
 Quadrupole moment (field-independent basis, Debye-Ang):
   XX=            -27.8472   YY=            -24.8977   ZZ=            -25.8932
   XY=              1.6542   XZ=              0.0000   YZ=              0.0000

  Exact polarizability:  23.774   1.788  24.968   0.000   0.000   6.246
 Approx polarizability:  30.064  -0.540  35.873   0.000   0.000   4.180

                      1                      2                      3
                     A"                     A"                     A"
 Frequencies --    442.8571               654.1229               671.8813
 Red. masses --      1.9540                 3.1948                 3.3775
 Frc consts  --      0.2258                 0.8054                 0.8983
 IR Inten    --     74.1996                 6.3966                16.7124

                      4                      5                      6
                     A"                     A'                     A'
 Frequencies --    833.3268               897.0276               966.3276
 Red. masses --      1.2272                 6.6325                 6.4671
 Frc consts  --      0.5021                 3.1444                 3.5580
 IR Inten    --     10.1654                 3.4623                 1.8637

                      7                      8                      9
                     A'                     A'                     A'
 Frequencies --   1020.5041              1037.4025              1127.0002
 Red. masses --      6.6658                 5.8424                 2.9636
 Frc consts  --      4.0901                 3.7045                 2.2178
 IR Inten    --     17.8224                 3.3605                 8.5019

                     10                     11                     12
                     A'                     A'                     A'
 Frequencies --   1160.4140              1264.9865              1492.8866
 Red. masses --      1.4597                 3.7313                 2.4634
 Frc consts  --      1.1581                 3.5179                 3.2347
 IR Inten    --      3.8540                 2.1538                40.1847

                     13                     14                     15
                     A'                     A'                     A'
 Frequencies --   1539.6128              3567.5051              3817.8916
 Red. masses --      5.1133                 1.0997                 1.0862
 Frc consts  --      7.1413                 8.2465                 9.3282
 IR Inten    --     20.9347                21.2307                91.0807

 - Thermochemistry -
 -------------------
 Temperature   298.150 Kelvin.  Pressure   1.00000 Atm.
 Atom     1 has atomic number  6 and mass  12.00000

 Molecular mass:    70.02795 amu.
 Principal axes and moments of inertia in atomic units:
                           1         2         3
     Eigenvalues --   190.61777 196.94868 387.56645
           X            0.79610   0.60517   0.00000
           Y           -0.60517   0.79610   0.00000
           Z            0.00000   0.00000   1.00000
 This molecule is an asymmetric top.
 Rotational symmetry number  1.
 Rotational temperatures (Kelvin)      0.45438     0.43978     0.22348
 Rotational constants (GHZ):           9.46785     9.16351     4.65660
 Zero-point vibrational energy     122579.8 (Joules/Mol)
                                   29.29728 (Kcal/Mol)
 Warning -- explicit consideration of   1 degrees of freedom as
           vibrations may cause significant error
 Vibrational temperatures:    637.17   941.14   966.69  1198.97  1290.62
          (Kelvin)           1390.33  1468.28  1492.59  1621.50  1669.57
                             1820.03  2147.93  2215.16  5132.84  5493.09

 Zero-point correction=                           0.046688 (Hartree/Particle)
 Thermal correction to Energy=                    0.050344
 Thermal correction to Enthalpy=                  0.051288
 Thermal correction to Gibbs Free Energy=         0.020344
 Sum of electronic and zero-point Energies=           -253.753627
 Sum of electronic and thermal Energies=              -253.749971
 Sum of electronic and thermal Enthalpies=            -253.749027
 Sum of electronic and thermal Free Energies=         -253.779971

                     E (Thermal)             CV                S
                      KCal/Mol        Cal/Mol-Kelvin    Cal/Mol-Kelvin
 Total                   31.591             12.150             65.126
 Electronic               0.000              0.000              0.000
 Translational            0.889              2.981             38.656
 Rotational               0.889              2.981             24.191
 Vibrational             29.814              6.189              2.279
 Vibration     1          0.802              1.377              0.818

 Normal termination of Gaussian 09 at Tue Nov 26 03:55:50 2013.
