 Gaussian 09, Revision D.01,
 Gaussian 09:  EM64L-G09RevD.01 24-Apr-2013

 -----------------------------------------------
 #MP2=FULL/6-311G(d,p) opt=z-matrix freq density
 -----------------------------------------------

 ------------------------------------------------------------------
 1H-tetrazole CH2N4 casno=288948 state=1 config=1 method=2 basis=21
 ------------------------------------------------------------------
 Symbolic Z-matrix:
 Charge =  0 Multiplicity = 1

 SCF Done:  E(RHF) =  -256.816035151     A.U. after   14 cycles
 E2 =    -0.9153334755D+00 EUMP2 =    -0.25773136862673D+03
 SCF Done:  E(RHF) =  -256.810665796     A.U. after   13 cycles
 E2 =    -0.9260200811D+00 EUMP2 =    -0.25773668587697D+03
 SCF Done:  E(RHF) =  -256.808868670     A.U. after   12 cycles
 E2 =    -0.9281458529D+00 EUMP2 =    -0.25773701452303D+03
 SCF Done:  E(RHF) =  -256.807399560     A.U. after   14 cycles
 E2 =    -0.9271201672D+00 EUMP2 =    -0.25773451972674D+03
 SCF Done:  E(RHF) =  -256.808040778     A.U. after   11 cycles
 E2 =    -0.9289786073D+00 EUMP2 =    -0.25773701938493D+03
 SCF Done:  E(RHF) =  -256.808269701     A.U. after   11 cycles
 E2 =    -0.9287602491D+00 EUMP2 =    -0.25773702994970D+03
 SCF Done:  E(RHF) =  -256.807848440     A.U. after   12 cycles
 E2 =    -0.9291796764D+00 EUMP2 =    -0.25773702811628D+03
 SCF Done:  E(RHF) =  -256.808146408     A.U. after   10 cycles
 E2 =    -0.9289109113D+00 EUMP2 =    -0.25773705731963D+03
 SCF Done:  E(RHF) =  -256.808019208     A.U. after   11 cycles
 E2 =    -0.9288907027D+00 EUMP2 =    -0.25773690991090D+03
 SCF Done:  E(RHF) =  -256.808162916     A.U. after    9 cycles
 E2 =    -0.9288972875D+00 EUMP2 =    -0.25773706020308D+03
 SCF Done:  E(RHF) =  -256.808102027     A.U. after   11 cycles
 E2 =    -0.9289312050D+00 EUMP2 =    -0.25773703323246D+03
 SCF Done:  E(RHF) =  -256.808179708     A.U. after    8 cycles
 E2 =    -0.9288807084D+00 EUMP2 =    -0.25773706041637D+03
 SCF Done:  E(RHF) =  -256.808211155     A.U. after    9 cycles
 E2 =    -0.9288489732D+00 EUMP2 =    -0.25773706012801D+03
 SCF Done:  E(RHF) =  -256.808190307     A.U. after    7 cycles
 E2 =    -0.9288701339D+00 EUMP2 =    -0.25773706044071D+03
 Optimization completed.
    -- Stationary point found.
 Normal termination of Gaussian 09 at Tue Nov 26 03:57:26 2013.

 ----------------------------------------------------------------------
 #N Geom=AllCheck Guess=TCheck SCRF=Check GenChk RMP2-Full/6-311G(d,p)
 Freq
 ----------------------------------------------------------------------

 Structure from the checkpoint file:  "/tmp/rdj3/g09-15973/Gau-20367.chk"
 ------------------------------------------------------------------
 1H-tetrazole CH2N4 casno=288948 state=1 config=1 method=2 basis=21
 ------------------------------------------------------------------
 Charge =  0 Multiplicity = 1

                         Standard orientation:
 ---------------------------------------------------------------------
 Center     Atomic      Atomic             Coordinates (Angstroms)
 Number     Number       Type             X           Y           Z
 ---------------------------------------------------------------------
      1          6           0        1.069880    0.234927    0.000000
      2          7           0        0.000000    1.053341    0.000000
      3          7           0       -1.120839    0.317180    0.000000
      4          7           0       -0.720892   -0.933530    0.000000
      5          7           0        0.633633   -1.013129    0.000000
      6          1           0        2.096594    0.562432    0.000000
      7          1           0       -0.059190    2.060981    0.000000
 ---------------------------------------------------------------------

 SCF Done:  E(RHF) =  -256.808190307     A.U. after    1 cycles
 E2 =    -0.9288701299D+00 EUMP2 =    -0.25773706043667D+03
 E2 =    -0.9288701299D+00 EUMP2 =    -0.25773706043667D+03

 The electronic state is 1-A'.
 Alpha  occ. eigenvalues --  -15.68565 -15.66194 -15.64530 -15.60475 -11.34038
 Alpha  occ. eigenvalues --   -1.49143  -1.25990  -1.18823  -0.91006  -0.88963
 Alpha  occ. eigenvalues --   -0.79853  -0.67649  -0.67410  -0.56663  -0.48396
 Alpha  occ. eigenvalues --   -0.47035  -0.45626  -0.41309
 Alpha virt. eigenvalues --    0.12652   0.12983   0.16628   0.17947   0.32792
 Alpha virt. eigenvalues --    0.36508   0.37537   0.44893   0.51692   0.56441
 Alpha virt. eigenvalues --    0.61263   0.62623   0.68806   0.74903   0.77062

 Mulliken charges:
               1
     1  C    0.193956
     2  N   -0.252264
     3  N   -0.032863
     4  N   -0.096852
     5  N   -0.218313
     6  H    0.149442
     7  H    0.256895
 Sum of Mulliken charges =   0.00000

 Dipole moment (field-independent basis, Debye):
    X=              2.5019    Y=              4.8711    Z=              0.0000  Tot=              5.4760
 Quadrupole moment (field-independent basis, Debye-Ang):
   XX=            -29.4479   YY=            -26.6488   ZZ=            -28.5688
   XY=              1.7200   XZ=              0.0000   YZ=              0.0000

  Exact polarizability:  38.700   1.354  37.290   0.000   0.000  17.491
 Approx polarizability:  38.711  -0.040  40.755   0.000   0.000  18.610

                      1                      2                      3
                     A"                     A"                     A"
 Frequencies --    619.0547               703.4017               737.9781
 Red. masses --      2.5846                 1.9292                 3.7501
 Frc consts  --      0.5836                 0.5624                 1.2033
 IR Inten    --     58.6687                17.1917                21.6542

                      4                      5                      6
                     A"                     A'                     A'
 Frequencies --    839.1158               971.4181              1013.7075
 Red. masses --      1.3203                 4.2553                 5.9150
 Frc consts  --      0.5477                 2.3659                 3.5812
 IR Inten    --     23.8652                 3.1360                 3.2310

                      7                      8                      9
                     A'                     A'                     A'
 Frequencies --   1098.4534              1117.4960              1156.6064
 Red. masses --      4.2813                 3.2642                 2.2633
 Frc consts  --      3.0436                 2.4017                 1.7838
 IR Inten    --     28.7219                15.4068                11.7660

                     10                     11                     12
                     A'                     A'                     A'
 Frequencies --   1206.5148              1272.8073              1490.5956
 Red. masses --      5.3640                 3.1848                 2.6683
 Frc consts  --      4.6005                 3.0399                 3.4931
 IR Inten    --      3.2800                 1.5773                17.7467

                     13                     14                     15
                     A'                     A'                     A'
 Frequencies --   1491.6786              3335.3082              3689.0014
 Red. masses --      3.9451                 1.1007                 1.0844
 Frc consts  --      5.1720                 7.2144                 8.6947
 IR Inten    --     13.9758                 2.5649               114.9537

 - Thermochemistry -
 -------------------
 Temperature   298.150 Kelvin.  Pressure   1.00000 Atm.
 Atom     1 has atomic number  6 and mass  12.00000

 Molecular mass:    70.02795 amu.
 Principal axes and moments of inertia in atomic units:
                           1         2         3
     Eigenvalues --   171.78719 175.63835 347.42554
           X           -0.67855   0.73456   0.00000
           Y            0.73456   0.67855   0.00000
           Z            0.00000   0.00000   1.00000
 This molecule is an asymmetric top.
 Rotational symmetry number  1.
 Rotational temperatures (Kelvin)      0.50419     0.49314     0.24930
 Rotational constants (GHZ):          10.50568    10.27533     5.19461
 Zero-point vibrational energy     124071.5 (Joules/Mol)
                                   29.65380 (Kcal/Mol)
 Warning -- explicit consideration of   1 degrees of freedom as
           vibrations may cause significant error
 Vibrational temperatures:    890.68  1012.04  1061.78  1207.30  1397.65
          (Kelvin)           1458.50  1580.43  1607.83  1664.10  1735.90
                             1831.28  2144.63  2146.19  4798.76  5307.64

 Zero-point correction=                           0.047256 (Hartree/Particle)
 Thermal correction to Energy=                    0.050699
 Thermal correction to Enthalpy=                  0.051644
 Thermal correction to Gibbs Free Energy=         0.021168
 Sum of electronic and zero-point Energies=           -257.689804
 Sum of electronic and thermal Energies=              -257.686361
 Sum of electronic and thermal Enthalpies=            -257.685417
 Sum of electronic and thermal Free Energies=         -257.715893

                     E (Thermal)             CV                S
                      KCal/Mol        Cal/Mol-Kelvin    Cal/Mol-Kelvin
 Total                   31.814             11.194             64.142
 Electronic               0.000              0.000              0.000
 Translational            0.889              2.981             38.656
 Rotational               0.889              2.981             23.865
 Vibrational             30.037              5.232              1.621
 Vibration     1          0.979              0.992              0.418

 Optimization completed.
    -- Stationary point found.
 Normal termination of Gaussian 09 at Tue Nov 26 03:58:43 2013.
