 Gaussian 09, Revision D.01,
 Gaussian 09:  EM64L-G09RevD.01 24-Apr-2013

 -----------------------------------------
 #MP2=FUll/3-21G opt=z-matrix freq density
 -----------------------------------------

 -----------------------------------------------------------------
 1H-tetrazole CH2N4 casno=288948 state=1 config=1 method=2 basis=2
 -----------------------------------------------------------------
 Symbolic Z-matrix:
 Charge =  0 Multiplicity = 1

 SCF Done:  E(RHF) =  -255.261114440     A.U. after   14 cycles
 E2 =    -0.5329911075D+00 EUMP2 =    -0.25579410554770D+03
 SCF Done:  E(RHF) =  -255.263817522     A.U. after   15 cycles
 E2 =    -0.5608024800D+00 EUMP2 =    -0.25582462000193D+03
 SCF Done:  E(RHF) =  -255.252945075     A.U. after   14 cycles
 E2 =    -0.5753215186D+00 EUMP2 =    -0.25582826659379D+03
 SCF Done:  E(RHF) =  -255.252537489     A.U. after   14 cycles
 E2 =    -0.5762830895D+00 EUMP2 =    -0.25582882057858D+03
 SCF Done:  E(RHF) =  -255.251469175     A.U. after   12 cycles
 E2 =    -0.5778099071D+00 EUMP2 =    -0.25582927908187D+03
 SCF Done:  E(RHF) =  -255.251356742     A.U. after   13 cycles
 E2 =    -0.5779817722D+00 EUMP2 =    -0.25582933851430D+03
 SCF Done:  E(RHF) =  -255.251710158     A.U. after   14 cycles
 E2 =    -0.5768849913D+00 EUMP2 =    -0.25582859514915D+03
 SCF Done:  E(RHF) =  -255.250626944     A.U. after   12 cycles
 E2 =    -0.5787328864D+00 EUMP2 =    -0.25582935983057D+03
 SCF Done:  E(RHF) =  -255.250585364     A.U. after   12 cycles
 E2 =    -0.5787838264D+00 EUMP2 =    -0.25582936919080D+03
 SCF Done:  E(RHF) =  -255.250220167     A.U. after   13 cycles
 E2 =    -0.5791458447D+00 EUMP2 =    -0.25582936601203D+03
 SCF Done:  E(RHF) =  -255.250396637     A.U. after   11 cycles
 E2 =    -0.5789802857D+00 EUMP2 =    -0.25582937692240D+03
 SCF Done:  E(RHF) =  -255.250424013     A.U. after   12 cycles
 E2 =    -0.5789551935D+00 EUMP2 =    -0.25582937920631D+03
 SCF Done:  E(RHF) =  -255.250451051     A.U. after   10 cycles
 E2 =    -0.5789289322D+00 EUMP2 =    -0.25582937998344D+03
 SCF Done:  E(RHF) =  -255.250883734     A.U. after   13 cycles
 E2 =    -0.5783557293D+00 EUMP2 =    -0.25582923946375D+03
 SCF Done:  E(RHF) =  -255.250464278     A.U. after   11 cycles
 E2 =    -0.5789160067D+00 EUMP2 =    -0.25582938028490D+03
 Optimization completed.
    -- Stationary point found.
 Normal termination of Gaussian 09 at Tue Nov 26 03:59:08 2013.

 --------------------------------------------------------------------
 #N Geom=AllCheck Guess=TCheck SCRF=Check GenChk RMP2-Full/3-21G Freq
 --------------------------------------------------------------------

 Structure from the checkpoint file:  "/tmp/rdj3/g09-15973/Gau-21990.chk"
 -----------------------------------------------------------------
 1H-tetrazole CH2N4 casno=288948 state=1 config=1 method=2 basis=2
 -----------------------------------------------------------------
 Charge =  0 Multiplicity = 1

                         Standard orientation:
 ---------------------------------------------------------------------
 Center     Atomic      Atomic             Coordinates (Angstroms)
 Number     Number       Type             X           Y           Z
 ---------------------------------------------------------------------
      1          6           0        1.087801    0.264763    0.000000
      2          7           0        0.000000    1.098637    0.000000
      3          7           0       -1.192124    0.317010    0.000000
      4          7           0       -0.750664   -1.004111    0.000000
      5          7           0        0.717866   -1.027671    0.000000
      6          1           0        2.105404    0.613029    0.000000
      7          1           0       -0.057751    2.111341    0.000000
 ---------------------------------------------------------------------

 SCF Done:  E(RHF) =  -255.250464278     A.U. after    1 cycles
 E2 =    -0.5789160062D+00 EUMP2 =    -0.25582938028437D+03
 E2 =    -0.5789160062D+00 EUMP2 =    -0.25582938028437D+03

 The electronic state is 1-A'.
 Alpha  occ. eigenvalues --  -15.62446 -15.62245 -15.60749 -15.55899 -11.30918
 Alpha  occ. eigenvalues --   -1.45232  -1.23649  -1.18854  -0.89985  -0.87471
 Alpha  occ. eigenvalues --   -0.79249  -0.65094  -0.64982  -0.55099  -0.48542
 Alpha  occ. eigenvalues --   -0.46612  -0.44504  -0.41839
 Alpha virt. eigenvalues --    0.10505   0.16342   0.22762   0.25802   0.33859
 Alpha virt. eigenvalues --    0.36704   0.41472   0.53972   0.59450   0.91969
 Alpha virt. eigenvalues --    0.93874   1.04204   1.08920   1.20285   1.31666

 Mulliken charges:
               1
     1  C    0.271977
     2  N   -0.506146
     3  N   -0.029065
     4  N   -0.079056
     5  N   -0.305412
     6  H    0.269958
     7  H    0.377743
 Sum of Mulliken charges =   0.00000

 Dipole moment (field-independent basis, Debye):
    X=              2.3978    Y=              4.9960    Z=              0.0000  Tot=              5.5416
 Quadrupole moment (field-independent basis, Debye-Ang):
   XX=            -29.8168   YY=            -26.7350   ZZ=            -28.9971
   XY=              1.9621   XZ=              0.0000   YZ=              0.0000

  Exact polarizability:  35.222   2.047  34.249   0.000   0.000  11.222
 Approx polarizability:  39.211  -0.702  43.990   0.000   0.000   9.050

                      1                      2                      3
                     A"                     A"                     A"
 Frequencies --    615.1901               669.0887               682.7988
 Red. masses --      3.0695                 3.4863                 1.6965
 Frc consts  --      0.6844                 0.9196                 0.4660
 IR Inten    --     77.9640                 3.4540                70.3856

                      4                      5                      6
                     A'                     A'                     A"
 Frequencies --    738.2849               811.4025               885.5262
 Red. masses --     11.0854                 9.1320                 1.3568
 Frc consts  --      3.5600                 3.5423                 0.6269
 IR Inten    --     18.0514                 2.6899                24.2216

                      7                      8                      9
                     A'                     A'                     A'
 Frequencies --    910.3708               977.5837               987.5454
 Red. masses --      5.6994                 8.8850                 7.3295
 Frc consts  --      2.7830                 5.0028                 4.2115
 IR Inten    --     11.0627                 1.5007                 3.3525

                     10                     11                     12
                     A'                     A'                     A'
 Frequencies --   1123.4268              1196.3130              1373.5171
 Red. masses --      2.2557                 2.1929                 2.5419
 Frc consts  --      1.6773                 1.8491                 2.8254
 IR Inten    --      6.4273                17.2353                 7.1334

                     13                     14                     15
                     A'                     A'                     A'
 Frequencies --   1412.7800              3337.4277              3592.3387
 Red. masses --      1.6645                 1.0983                 1.0848
 Frc consts  --      1.9574                 7.2075                 8.2481
 IR Inten    --     53.4691                 1.4056               118.6664

 - Thermochemistry -
 -------------------
 Temperature   298.150 Kelvin.  Pressure   1.00000 Atm.
 Atom     1 has atomic number  6 and mass  12.00000

 Molecular mass:    70.02795 amu.
 Principal axes and moments of inertia in atomic units:
                           1         2         3
     Eigenvalues --   187.74261 192.37270 380.11531
           X            0.89801   0.43997   0.00000
           Y           -0.43997   0.89801   0.00000
           Z            0.00000   0.00000   1.00000
 This molecule is an asymmetric top.
 Rotational symmetry number  1.
 Rotational temperatures (Kelvin)      0.46134     0.45024     0.22786
 Rotational constants (GHZ):           9.61285     9.38148     4.74788
 Zero-point vibrational energy     115520.9 (Joules/Mol)
                                   27.61017 (Kcal/Mol)
 Warning -- explicit consideration of   1 degrees of freedom as
           vibrations may cause significant error
 Vibrational temperatures:    885.12   962.67   982.39  1062.23  1167.43
          (Kelvin)           1274.07  1309.82  1406.52  1420.86  1616.36
                             1721.23  1976.18  2032.67  4801.81  5168.57

 Zero-point correction=                           0.044000 (Hartree/Particle)
 Thermal correction to Energy=                    0.047646
 Thermal correction to Enthalpy=                  0.048590
 Thermal correction to Gibbs Free Energy=         0.017723
 Sum of electronic and zero-point Energies=           -255.785381
 Sum of electronic and thermal Energies=              -255.781735
 Sum of electronic and thermal Enthalpies=            -255.780790
 Sum of electronic and thermal Free Energies=         -255.811658

                     E (Thermal)             CV                S
                      KCal/Mol        Cal/Mol-Kelvin    Cal/Mol-Kelvin
 Total                   29.898             12.588             64.966
 Electronic               0.000              0.000              0.000
 Translational            0.889              2.981             38.656
 Rotational               0.889              2.981             24.133
 Vibrational             28.121              6.626              2.177
 Vibration     1          0.975              1.000              0.424

 Optimization completed.
    -- Stationary point found.
 Normal termination of Gaussian 09 at Tue Nov 26 03:59:16 2013.
