 Gaussian 09, Revision D.01,
 Gaussian 09:  EM64L-G09RevD.01 24-Apr-2013

 -------------------------------
 #MP2=FULL/TZVP opt freq density
 -------------------------------

 ------------------------------------------------------------------
 1H-tetrazole CH2N4 casno=288948 state=1 config=1 method=2 basis=32
 ------------------------------------------------------------------
 Symbolic Z-matrix:
 Charge =  0 Multiplicity = 1

 SCF Done:  E(RHF) =  -256.833827633     A.U. after   14 cycles
 E2 =    -0.9082276717D+00 EUMP2 =    -0.25774205530436D+03
 SCF Done:  E(RHF) =  -256.828742643     A.U. after   13 cycles
 E2 =    -0.9182770743D+00 EUMP2 =    -0.25774701971763D+03
 SCF Done:  E(RHF) =  -256.826469606     A.U. after   12 cycles
 E2 =    -0.9208576445D+00 EUMP2 =    -0.25774732725072D+03
 SCF Done:  E(RHF) =  -256.825789839     A.U. after   12 cycles
 E2 =    -0.9215887268D+00 EUMP2 =    -0.25774737856610D+03
 SCF Done:  E(RHF) =  -256.825843686     A.U. after   10 cycles
 E2 =    -0.9215554537D+00 EUMP2 =    -0.25774739913959D+03
 SCF Done:  E(RHF) =  -256.826014691     A.U. after   11 cycles
 E2 =    -0.9213892837D+00 EUMP2 =    -0.25774740397494D+03
 Optimization completed.
    -- Stationary point found.
 Normal termination of Gaussian 09 at Mon Dec 16 15:37:09 2013.

 -------------------------------------------------------------------
 #N Geom=AllCheck Guess=TCheck SCRF=Check GenChk RMP2-Full/TZVP Freq
 -------------------------------------------------------------------

 Structure from the checkpoint file:  "/tmp/rdj3/g09-26267/Gau-30289.chk"
 ------------------------------------------------------------------
 1H-tetrazole CH2N4 casno=288948 state=1 config=1 method=2 basis=32
 ------------------------------------------------------------------
 Charge =  0 Multiplicity = 1

                         Standard orientation:
 ---------------------------------------------------------------------
 Center     Atomic      Atomic             Coordinates (Angstroms)
 Number     Number       Type             X           Y           Z
 ---------------------------------------------------------------------
      1          6           0        1.067160    0.237155    0.000000
      2          7           0        0.000000    1.053110    0.000000
      3          7           0       -1.122244    0.314382    0.000000
      4          7           0       -0.720438   -0.935581    0.000000
      5          7           0        0.637687   -1.009952    0.000000
      6          1           0        2.090564    0.563160    0.000000
      7          1           0       -0.058562    2.060196    0.000000
 ---------------------------------------------------------------------

 SCF Done:  E(RHF) =  -256.826014691     A.U. after    1 cycles
 E2 =    -0.9213892827D+00 EUMP2 =    -0.25774740397396D+03
 E2 =    -0.9213892827D+00 EUMP2 =    -0.25774740397396D+03

 The electronic state is 1-A'.
 Alpha  occ. eigenvalues --  -15.68967 -15.66838 -15.65198 -15.60996 -11.34167
 Alpha  occ. eigenvalues --   -1.49568  -1.26304  -1.19348  -0.91345  -0.89409
 Alpha  occ. eigenvalues --   -0.80317  -0.68020  -0.67707  -0.57013  -0.48694
 Alpha  occ. eigenvalues --   -0.47438  -0.45926  -0.41776
 Alpha virt. eigenvalues --    0.11085   0.11956   0.16553   0.16716   0.22180
 Alpha virt. eigenvalues --    0.23600   0.32811   0.33210   0.37866   0.40304
 Alpha virt. eigenvalues --    0.44100   0.47232   0.48863   0.49428   0.51453

 Mulliken charges:
               1
     1  C   -0.136555
     2  N   -0.073617
     3  N   -0.065996
     4  N   -0.092302
     5  N   -0.035172
     6  H    0.139556
     7  H    0.264085
 Sum of Mulliken charges =   0.00000

 Dipole moment (field-independent basis, Debye):
    X=              2.5863    Y=              4.9922    Z=              0.0000  Tot=              5.6223
 Quadrupole moment (field-independent basis, Debye-Ang):
   XX=            -29.9469   YY=            -27.0848   ZZ=            -28.9127
   XY=              1.8205   XZ=              0.0000   YZ=              0.0000

  Exact polarizability:  41.656   1.063  40.377   0.000   0.000  21.905
 Approx polarizability:  39.570  -0.202  41.796   0.000   0.000  22.276

                      1                      2                      3
                     A"                     A"                     A"
 Frequencies --    502.0768               683.5919               712.9627
 Red. masses --      2.3925                 2.2471                 4.0312
 Frc consts  --      0.3553                 0.6187                 1.2073
 IR Inten    --     53.0129                13.1572                13.4924

                      4                      5                      6
                     A"                     A'                     A'
 Frequencies --    784.7272               962.2668              1005.0720
 Red. masses --      1.2214                 4.9310                 6.5433
 Frc consts  --      0.4431                 2.6901                 3.8944
 IR Inten    --     42.1883                 2.8598                 1.4665

                      7                      8                      9
                     A'                     A'                     A'
 Frequencies --   1071.4912              1100.8224              1151.4927
 Red. masses --      6.1869                 3.3107                 2.8384
 Frc consts  --      4.1850                 2.3638                 2.2174
 IR Inten    --     29.7782                15.8237                14.9362

                     10                     11                     12
                     A'                     A'                     A'
 Frequencies --   1191.4174              1269.4790              1483.5532
 Red. masses --      3.2118                 2.7472                 2.6989
 Frc consts  --      2.6861                 2.6085                 3.4998
 IR Inten    --      2.9361                 2.5079                21.7960

                     13                     14                     15
                     A'                     A'                     A'
 Frequencies --   1489.8815              3342.2270              3674.8951
 Red. masses --      3.3620                 1.1008                 1.0845
 Frc consts  --      4.3969                 7.2452                 8.6295
 IR Inten    --     12.8258                 3.2239               118.3989

 - Thermochemistry -
 -------------------
 Temperature   298.150 Kelvin.  Pressure   1.00000 Atm.
 Atom     1 has atomic number  6 and mass  12.00000

 Molecular mass:    70.02795 amu.
 Principal axes and moments of inertia in atomic units:
                           1         2         3
     Eigenvalues --   171.86841 175.39458 347.26299
           X           -0.70155   0.71262   0.00000
           Y            0.71262   0.70155   0.00000
           Z            0.00000   0.00000   1.00000
 This molecule is an asymmetric top.
 Rotational symmetry number  1.
 Rotational temperatures (Kelvin)      0.50395     0.49382     0.24942
 Rotational constants (GHZ):          10.50072    10.28961     5.19704
 Zero-point vibrational energy     122174.4 (Joules/Mol)
                                   29.20037 (Kcal/Mol)
 Warning -- explicit consideration of   1 degrees of freedom as
           vibrations may cause significant error
 Vibrational temperatures:    722.38   983.54  1025.79  1129.05  1384.49
          (Kelvin)           1446.07  1541.63  1583.84  1656.74  1714.18
                             1826.49  2134.50  2143.60  4808.71  5287.35

 Zero-point correction=                           0.046534 (Hartree/Particle)
 Thermal correction to Energy=                    0.050091
 Thermal correction to Enthalpy=                  0.051035
 Thermal correction to Gibbs Free Energy=         0.020393
 Sum of electronic and zero-point Energies=           -257.700870
 Sum of electronic and thermal Energies=              -257.697313
 Sum of electronic and thermal Enthalpies=            -257.696369
 Sum of electronic and thermal Free Energies=         -257.727011

                     E (Thermal)             CV                S
                      KCal/Mol        Cal/Mol-Kelvin    Cal/Mol-Kelvin
 Total                   31.433             11.695             64.492
 Electronic               0.000              0.000              0.000
 Translational            0.889              2.981             38.656
 Rotational               0.889              2.981             23.863
 Vibrational             29.655              5.734              1.972
 Vibration     1          0.857              1.245              0.653

 Optimization completed.
    -- Stationary point found.
 Normal termination of Gaussian 09 at Mon Dec 16 15:38:18 2013.
