 Gaussian 09, Revision D.01,
 Gaussian 09:  EM64L-G09RevD.01 24-Apr-2013

 -------------------------------------------
 #MP2=FUll/6-31G** opt=z-matrix freq density
 -------------------------------------------

 -----------------------------------------------------------------
 1H-tetrazole CH2N4 casno=288948 state=1 config=1 method=2 basis=3
 -----------------------------------------------------------------
 Symbolic Z-matrix:
 Charge =  0 Multiplicity = 1

 SCF Done:  E(RHF) =  -256.760119309     A.U. after   15 cycles
 E2 =    -0.8042602425D+00 EUMP2 =    -0.25756437955175D+03
 SCF Done:  E(RHF) =  -256.754210399     A.U. after   13 cycles
 E2 =    -0.8169175978D+00 EUMP2 =    -0.25757112799663D+03
 SCF Done:  E(RHF) =  -256.752174417     A.U. after   13 cycles
 E2 =    -0.8193389289D+00 EUMP2 =    -0.25757151334602D+03
 SCF Done:  E(RHF) =  -256.751623299     A.U. after   13 cycles
 E2 =    -0.8198578855D+00 EUMP2 =    -0.25757148118434D+03
 SCF Done:  E(RHF) =  -256.751405886     A.U. after   11 cycles
 E2 =    -0.8201512277D+00 EUMP2 =    -0.25757155711414D+03
 SCF Done:  E(RHF) =  -256.750686772     A.U. after   12 cycles
 E2 =    -0.8205378948D+00 EUMP2 =    -0.25757122466704D+03
 SCF Done:  E(RHF) =  -256.751297687     A.U. after   10 cycles
 E2 =    -0.8202634375D+00 EUMP2 =    -0.25757156112410D+03
 SCF Done:  E(RHF) =  -256.751108651     A.U. after   11 cycles
 E2 =    -0.8204473152D+00 EUMP2 =    -0.25757155596594D+03
 SCF Done:  E(RHF) =  -256.751313557     A.U. after    9 cycles
 E2 =    -0.8202479193D+00 EUMP2 =    -0.25757156147642D+03
 SCF Done:  E(RHF) =  -256.751175162     A.U. after   11 cycles
 E2 =    -0.8203782826D+00 EUMP2 =    -0.25757155344438D+03
 SCF Done:  E(RHF) =  -256.751307519     A.U. after    8 cycles
 E2 =    -0.8202541927D+00 EUMP2 =    -0.25757156171143D+03
 SCF Done:  E(RHF) =  -256.751317214     A.U. after   10 cycles
 E2 =    -0.8202385933D+00 EUMP2 =    -0.25757155580767D+03
 SCF Done:  E(RHF) =  -256.751314613     A.U. after    7 cycles
 E2 =    -0.8202471158D+00 EUMP2 =    -0.25757156172916D+03
 SCF Done:  E(RHF) =  -256.751320099     A.U. after    7 cycles
 E2 =    -0.8202416357D+00 EUMP2 =    -0.25757156173463D+03
 Optimization completed.
    -- Stationary point found.
 Normal termination of Gaussian 09 at Tue Nov 26 04:03:05 2013.

 ----------------------------------------------------------------------
 #N Geom=AllCheck Guess=TCheck SCRF=Check GenChk RMP2-Full/6-31G(d,p) F
 req
 ----------------------------------------------------------------------

 Structure from the checkpoint file:  "/tmp/rdj3/g09-15973/Gau-25927.chk"
 -----------------------------------------------------------------
 1H-tetrazole CH2N4 casno=288948 state=1 config=1 method=2 basis=3
 -----------------------------------------------------------------
 Charge =  0 Multiplicity = 1

                         Standard orientation:
 ---------------------------------------------------------------------
 Center     Atomic      Atomic             Coordinates (Angstroms)
 Number     Number       Type             X           Y           Z
 ---------------------------------------------------------------------
      1          6           0        1.071155    0.238886    0.000000
      2          7           0        0.000000    1.054952    0.000000
      3          7           0       -1.126628    0.317397    0.000000
      4          7           0       -0.721156   -0.939583    0.000000
      5          7           0        0.638610   -1.013175    0.000000
      6          1           0        2.093382    0.568146    0.000000
      7          1           0       -0.056097    2.061399    0.000000
 ---------------------------------------------------------------------

 SCF Done:  E(RHF) =  -256.751320099     A.U. after    1 cycles
 E2 =    -0.8202416337D+00 EUMP2 =    -0.25757156173262D+03
 E2 =    -0.8202416337D+00 EUMP2 =    -0.25757156173262D+03

 The electronic state is 1-A'.
 Alpha  occ. eigenvalues --  -15.69325 -15.67040 -15.65405 -15.61219 -11.34290
 Alpha  occ. eigenvalues --   -1.48540  -1.25674  -1.18540  -0.90848  -0.88726
 Alpha  occ. eigenvalues --   -0.79672  -0.67417  -0.67060  -0.56432  -0.48270
 Alpha  occ. eigenvalues --   -0.46888  -0.45370  -0.41081
 Alpha virt. eigenvalues --    0.13307   0.18394   0.19646   0.25194   0.36313
 Alpha virt. eigenvalues --    0.38375   0.46166   0.49597   0.64230   0.73066
 Alpha virt. eigenvalues --    0.73978   0.82239   0.82546   0.88662   0.90769

 Mulliken charges:
               1
     1  C    0.256733
     2  N   -0.355388
     3  N   -0.045004
     4  N   -0.093169
     5  N   -0.279098
     6  H    0.183588
     7  H    0.332337
 Sum of Mulliken charges =   0.00000

 Dipole moment (field-independent basis, Debye):
    X=              2.5452    Y=              4.8933    Z=              0.0000  Tot=              5.5156
 Quadrupole moment (field-independent basis, Debye-Ang):
   XX=            -29.2580   YY=            -26.4151   ZZ=            -28.5494
   XY=              1.7584   XZ=              0.0000   YZ=              0.0000

  Exact polarizability:  37.518   1.335  36.246   0.000   0.000  15.484
 Approx polarizability:  38.455  -0.129  40.540   0.000   0.000  17.050

                      1                      2                      3
                     A"                     A"                     A"
 Frequencies --    617.7079               702.4256               738.2839
 Red. masses --      2.6054                 1.9169                 4.0295
 Frc consts  --      0.5857                 0.5573                 1.2940
 IR Inten    --     63.6420                18.8371                19.8697

                      4                      5                      6
                     A"                     A'                     A'
 Frequencies --    825.7632               971.8481              1012.6359
 Red. masses --      1.2874                 4.8396                 6.0477
 Frc consts  --      0.5172                 2.6931                 3.6538
 IR Inten    --     26.3329                 2.5387                 3.3850

                      7                      8                      9
                     A'                     A'                     A'
 Frequencies --   1097.0413              1120.1970              1160.2877
 Red. masses --      4.3408                 4.1429                 2.5566
 Frc consts  --      3.0780                 3.0630                 2.0279
 IR Inten    --     29.3102                10.6306                15.9150

                     10                     11                     12
                     A'                     A'                     A'
 Frequencies --   1205.8998              1282.1955              1502.2074
 Red. masses --      3.3684                 2.9209                 2.3780
 Frc consts  --      2.8860                 2.8292                 3.1617
 IR Inten    --      1.9262                 1.9345                26.4260

                     13                     14                     15
                     A'                     A'                     A'
 Frequencies --   1512.8518              3380.6969              3727.6004
 Red. masses --      4.5456                 1.1003                 1.0843
 Frc consts  --      6.1296                 7.4094                 8.8769
 IR Inten    --      9.2061                 2.1300               113.1196

 - Thermochemistry -
 -------------------
 Temperature   298.150 Kelvin.  Pressure   1.00000 Atm.
 Atom     1 has atomic number  6 and mass  12.00000

 Molecular mass:    70.02795 amu.
 Principal axes and moments of inertia in atomic units:
                           1         2         3
     Eigenvalues --   172.87389 176.46192 349.33580
           X           -0.69641   0.71764   0.00000
           Y            0.71764   0.69641   0.00000
           Z            0.00000   0.00000   1.00000
 This molecule is an asymmetric top.
 Rotational symmetry number  1.
 Rotational temperatures (Kelvin)      0.50102     0.49084     0.24794
 Rotational constants (GHZ):          10.43964    10.22737     5.16621
 Zero-point vibrational energy     124756.4 (Joules/Mol)
                                   29.81750 (Kcal/Mol)
 Warning -- explicit consideration of   1 degrees of freedom as
           vibrations may cause significant error
 Vibrational temperatures:    888.74  1010.63  1062.22  1188.09  1398.27
          (Kelvin)           1456.96  1578.40  1611.71  1669.39  1735.02
                             1844.79  2161.34  2176.65  4864.06  5363.18

 Zero-point correction=                           0.047517 (Hartree/Particle)
 Thermal correction to Energy=                    0.050963
 Thermal correction to Enthalpy=                  0.051908
 Thermal correction to Gibbs Free Energy=         0.021420
 Sum of electronic and zero-point Energies=           -257.524045
 Sum of electronic and thermal Energies=              -257.520598
 Sum of electronic and thermal Enthalpies=            -257.519654
 Sum of electronic and thermal Free Energies=         -257.550142

                     E (Thermal)             CV                S
                      KCal/Mol        Cal/Mol-Kelvin    Cal/Mol-Kelvin
 Total                   31.980             11.202             64.167
 Electronic               0.000              0.000              0.000
 Translational            0.889              2.981             38.656
 Rotational               0.889              2.981             23.881
 Vibrational             30.203              5.241              1.630
 Vibration     1          0.977              0.994              0.420

 Optimization completed.
    -- Stationary point found.
 Normal termination of Gaussian 09 at Tue Nov 26 04:03:45 2013.
