 Gaussian 09, Revision D.01,
 Gaussian 09:  EM64L-G09RevD.01 24-Apr-2013

 -----------------------------------
 #MP2=FUll/6-31+G** opt freq density
 -----------------------------------

 -----------------------------------------------------------------
 1H-tetrazole CH2N4 casno=288948 state=1 config=1 method=2 basis=4
 -----------------------------------------------------------------
 Symbolic Z-matrix:
 Charge =  0 Multiplicity = 1

 SCF Done:  E(RHF) =  -256.767607422     A.U. after   15 cycles
 E2 =    -0.8138812533D+00 EUMP2 =    -0.25758148867492D+03
 SCF Done:  E(RHF) =  -256.761492088     A.U. after   13 cycles
 E2 =    -0.8271242273D+00 EUMP2 =    -0.25758861631524D+03
 SCF Done:  E(RHF) =  -256.758813364     A.U. after   13 cycles
 E2 =    -0.8301694284D+00 EUMP2 =    -0.25758898279260D+03
 SCF Done:  E(RHF) =  -256.757829157     A.U. after   13 cycles
 E2 =    -0.8312302429D+00 EUMP2 =    -0.25758905939961D+03
 SCF Done:  E(RHF) =  -256.758180615     A.U. after   11 cycles
 E2 =    -0.8309119542D+00 EUMP2 =    -0.25758909256871D+03
 SCF Done:  E(RHF) =  -256.758392159     A.U. after   12 cycles
 E2 =    -0.8307058339D+00 EUMP2 =    -0.25758909799271D+03
 Optimization completed.
    -- Stationary point found.
 Normal termination of Gaussian 09 at Mon Dec 16 15:38:56 2013.

 ----------------------------------------------------------------------
 #N Geom=AllCheck Guess=TCheck SCRF=Check GenChk RMP2-Full/6-31+G(d,p)
 Freq
 ----------------------------------------------------------------------

 Structure from the checkpoint file:  "/tmp/rdj3/g09-26267/Gau-31125.chk"
 -----------------------------------------------------------------
 1H-tetrazole CH2N4 casno=288948 state=1 config=1 method=2 basis=4
 -----------------------------------------------------------------
 Charge =  0 Multiplicity = 1

                         Standard orientation:
 ---------------------------------------------------------------------
 Center     Atomic      Atomic             Coordinates (Angstroms)
 Number     Number       Type             X           Y           Z
 ---------------------------------------------------------------------
      1          6           0        1.072549    0.240283    0.000000
      2          7           0        0.000000    1.055890    0.000000
      3          7           0       -1.127160    0.317319    0.000000
      4          7           0       -0.721970   -0.941561    0.000000
      5          7           0        0.638646   -1.013336    0.000000
      6          1           0        2.096073    0.566698    0.000000
      7          1           0       -0.057980    2.063420    0.000000
 ---------------------------------------------------------------------

 SCF Done:  E(RHF) =  -256.758392159     A.U. after    1 cycles
 E2 =    -0.8307058337D+00 EUMP2 =    -0.25758909799253D+03
 E2 =    -0.8307058337D+00 EUMP2 =    -0.25758909799253D+03

 The electronic state is 1-A'.
 Alpha  occ. eigenvalues --  -15.70111 -15.67975 -15.66403 -15.62219 -11.35007
 Alpha  occ. eigenvalues --   -1.49283  -1.26415  -1.19253  -0.91552  -0.89426
 Alpha  occ. eigenvalues --   -0.80287  -0.68086  -0.67629  -0.57071  -0.48978
 Alpha  occ. eigenvalues --   -0.47567  -0.46011  -0.41690
 Alpha virt. eigenvalues --    0.05107   0.08194   0.08642   0.10069   0.12396
 Alpha virt. eigenvalues --    0.14725   0.16227   0.17248   0.18920   0.20626
 Alpha virt. eigenvalues --    0.22252   0.23527   0.24596   0.27255   0.28871

 Mulliken charges:
               1
     1  C    0.041601
     2  N   -0.298391
     3  N   -0.022080
     4  N   -0.032617
     5  N   -0.248228
     6  H    0.199529
     7  H    0.360185
 Sum of Mulliken charges =   0.00000

 Dipole moment (field-independent basis, Debye):
    X=              2.6922    Y=              5.0643    Z=              0.0000  Tot=              5.7354
 Quadrupole moment (field-independent basis, Debye-Ang):
   XX=            -30.1986   YY=            -27.3467   ZZ=            -29.4234
   XY=              1.9179   XZ=              0.0000   YZ=              0.0000

  Exact polarizability:  43.899   0.718  42.593   0.000   0.000  24.126
 Approx polarizability:  40.951  -0.332  43.062   0.000   0.000  23.720

                      1                      2                      3
                     A"                     A"                     A"
 Frequencies --    577.7564               688.1571               717.7788
 Red. masses --      2.6182                 2.0764                 3.8045
 Frc consts  --      0.5149                 0.5794                 1.1549
 IR Inten    --     58.1786                16.1565                18.7497

                      4                      5                      6
                     A"                     A'                     A'
 Frequencies --    807.8974               964.6130              1007.3210
 Red. masses --      1.2437                 4.9107                 6.3035
 Frc consts  --      0.4783                 2.6921                 3.7685
 IR Inten    --     38.4744                 2.7178                 2.1451

                      7                      8                      9
                     A'                     A'                     A'
 Frequencies --   1087.9692              1114.3182              1151.4538
 Red. masses --      4.6947                 4.0394                 2.7512
 Frc consts  --      3.2741                 2.9552                 2.1492
 IR Inten    --     32.1636                10.7800                17.1706

                     10                     11                     12
                     A'                     A'                     A'
 Frequencies --   1199.7177              1275.9181              1494.0679
 Red. masses --      3.0141                 2.8581                 2.3625
 Frc consts  --      2.5561                 2.7414                 3.1071
 IR Inten    --      2.0968                 1.8797                24.3246

                     13                     14                     15
                     A'                     A'                     A'
 Frequencies --   1502.1426              3376.8595              3713.5370
 Red. masses --      4.4650                 1.1006                 1.0847
 Frc consts  --      5.9360                 7.3947                 8.8134
 IR Inten    --     11.9352                 3.6136               121.8457

 - Thermochemistry -
 -------------------
 Temperature   298.150 Kelvin.  Pressure   1.00000 Atm.
 Atom     1 has atomic number  6 and mass  12.00000

 Molecular mass:    70.02795 amu.
 Principal axes and moments of inertia in atomic units:
                           1         2         3
     Eigenvalues --   173.35044 176.62700 349.97743
           X           -0.68862   0.72512   0.00000
           Y            0.72512   0.68862   0.00000
           Z            0.00000   0.00000   1.00000
 This molecule is an asymmetric top.
 Rotational symmetry number  1.
 Rotational temperatures (Kelvin)      0.49965     0.49038     0.24748
 Rotational constants (GHZ):          10.41094    10.21781     5.15674
 Zero-point vibrational energy     123690.9 (Joules/Mol)
                                   29.56284 (Kcal/Mol)
 Warning -- explicit consideration of   1 degrees of freedom as
           vibrations may cause significant error
 Vibrational temperatures:    831.26   990.10  1032.72  1162.38  1387.86
          (Kelvin)           1449.31  1565.34  1603.25  1656.68  1726.12
                             1835.76  2149.63  2161.25  4858.54  5342.94

 Zero-point correction=                           0.047111 (Hartree/Particle)
 Thermal correction to Energy=                    0.050603
 Thermal correction to Enthalpy=                  0.051547
 Thermal correction to Gibbs Free Energy=         0.020992
 Sum of electronic and zero-point Energies=           -257.541987
 Sum of electronic and thermal Energies=              -257.538495
 Sum of electronic and thermal Enthalpies=            -257.537551
 Sum of electronic and thermal Free Energies=         -257.568106

                     E (Thermal)             CV                S
                      KCal/Mol        Cal/Mol-Kelvin    Cal/Mol-Kelvin
 Total                   31.754             11.427             64.308
 Electronic               0.000              0.000              0.000
 Translational            0.889              2.981             38.656
 Rotational               0.889              2.981             23.887
 Vibrational             29.976              5.465              1.765
 Vibration     1          0.934              1.079              0.490

 Optimization completed.
    -- Stationary point found.
 Normal termination of Gaussian 09 at Mon Dec 16 15:39:59 2013.
