 Gaussian 09, Revision D.01,
 Gaussian 09:  EM64L-G09RevD.01 24-Apr-2013

 -------------------------------------------
 #MP2=FUll/cc-pVDZ opt=z-matrix freq density
 -------------------------------------------

 -----------------------------------------------------------------
 1H-tetrazole CH2N4 casno=288948 state=1 config=1 method=2 basis=5
 -----------------------------------------------------------------
 Symbolic Z-matrix:
 Charge =  0 Multiplicity = 1

 SCF Done:  E(RHF) =  -256.780056734     A.U. after   15 cycles
 E2 =    -0.7868768137D+00 EUMP2 =    -0.25756693354721D+03
 SCF Done:  E(RHF) =  -256.773477997     A.U. after   13 cycles
 E2 =    -0.8011561911D+00 EUMP2 =    -0.25757463418759D+03
 SCF Done:  E(RHF) =  -256.771340552     A.U. after   13 cycles
 E2 =    -0.8036511145D+00 EUMP2 =    -0.25757499166663D+03
 SCF Done:  E(RHF) =  -256.770232313     A.U. after   14 cycles
 E2 =    -0.8027839179D+00 EUMP2 =    -0.25757301623078D+03
 SCF Done:  E(RHF) =  -256.771476289     A.U. after   12 cycles
 E2 =    -0.8033157543D+00 EUMP2 =    -0.25757479204359D+03
 SCF Done:  E(RHF) =  -256.757378452     A.U. after   15 cycles
 E2 =    -0.8118318015D+00 EUMP2 =    -0.25756921025378D+03
 SCF Done:  E(RHF) =  -256.770466876     A.U. after   10 cycles
 E2 =    -0.8045927270D+00 EUMP2 =    -0.25757505960338D+03
 SCF Done:  E(RHF) =  -256.772203212     A.U. after   14 cycles
 E2 =    -0.8019850619D+00 EUMP2 =    -0.25757418827385D+03
 SCF Done:  E(RHF) =  -256.770711581     A.U. after   10 cycles
 E2 =    -0.8043622201D+00 EUMP2 =    -0.25757507380064D+03
 SCF Done:  E(RHF) =  -256.770694812     A.U. after   10 cycles
 E2 =    -0.8043822594D+00 EUMP2 =    -0.25757507707118D+03
 SCF Done:  E(RHF) =  -256.770674026     A.U. after    9 cycles
 E2 =    -0.8044030253D+00 EUMP2 =    -0.25757507705172D+03
 SCF Done:  E(RHF) =  -256.770673080     A.U. after    8 cycles
 E2 =    -0.8044041698D+00 EUMP2 =    -0.25757507724931D+03
 Optimization completed.
    -- Stationary point found.
 Normal termination of Gaussian 09 at Tue Nov 26 04:07:10 2013.

 ----------------------------------------------------------------------
 #N Geom=AllCheck Guess=TCheck SCRF=Check GenChk RMP2-Full/CC-pVDZ Freq
 ----------------------------------------------------------------------

 Structure from the checkpoint file:  "/tmp/rdj3/g09-15973/Gau-30354.chk"
 -----------------------------------------------------------------
 1H-tetrazole CH2N4 casno=288948 state=1 config=1 method=2 basis=5
 -----------------------------------------------------------------
 Charge =  0 Multiplicity = 1

                         Standard orientation:
 ---------------------------------------------------------------------
 Center     Atomic      Atomic             Coordinates (Angstroms)
 Number     Number       Type             X           Y           Z
 ---------------------------------------------------------------------
      1          6           0        1.073652    0.234960    0.000000
      2          7           0        0.000000    1.057796    0.000000
      3          7           0       -1.124748    0.320833    0.000000
      4          7           0       -0.724035   -0.936789    0.000000
      5          7           0        0.635015   -1.020218    0.000000
      6          1           0        2.108331    0.566617    0.000000
      7          1           0       -0.053868    2.072267    0.000000
 ---------------------------------------------------------------------

 SCF Done:  E(RHF) =  -256.770673080     A.U. after    1 cycles
 E2 =    -0.8044041716D+00 EUMP2 =    -0.25757507725107D+03
 E2 =    -0.8044041716D+00 EUMP2 =    -0.25757507725107D+03

 The electronic state is 1-A'.
 Alpha  occ. eigenvalues --  -15.68846 -15.66350 -15.64723 -15.60856 -11.34516
 Alpha  occ. eigenvalues --   -1.48375  -1.25525  -1.18250  -0.90468  -0.88461
 Alpha  occ. eigenvalues --   -0.79122  -0.67014  -0.66852  -0.56201  -0.48049
 Alpha  occ. eigenvalues --   -0.46751  -0.45213  -0.40816
 Alpha virt. eigenvalues --    0.13361   0.15461   0.18327   0.19569   0.34321
 Alpha virt. eigenvalues --    0.38275   0.42751   0.46913   0.59615   0.66454
 Alpha virt. eigenvalues --    0.66517   0.75317   0.79414   0.81786   0.87233

 Mulliken charges:
               1
     1  C    0.173021
     2  N   -0.067418
     3  N   -0.065099
     4  N   -0.096123
     5  N   -0.177416
     6  H    0.080760
     7  H    0.152277
 Sum of Mulliken charges =   0.00000

 Dipole moment (field-independent basis, Debye):
    X=              2.4385    Y=              4.7892    Z=              0.0000  Tot=              5.3742
 Quadrupole moment (field-independent basis, Debye-Ang):
   XX=            -29.3041   YY=            -26.3961   ZZ=            -28.4566
   XY=              1.6822   XZ=              0.0000   YZ=              0.0000

  Exact polarizability:  37.895   1.460  36.190   0.000   0.000  15.958
 Approx polarizability:  38.818   0.002  40.597   0.000   0.000  17.404

                      1                      2                      3
                     A"                     A"                     A"
 Frequencies --    607.9991               698.7244               740.5099
 Red. masses --      2.1744                 1.9662                 4.9131
 Frc consts  --      0.4736                 0.5656                 1.5873
 IR Inten    --     62.1569                11.9788                14.3268

                      4                      5                      6
                     A"                     A'                     A'
 Frequencies --    828.4534               964.5485              1006.8929
 Red. masses --      1.3214                 4.0492                 5.6654
 Frc consts  --      0.5343                 2.2196                 3.3841
 IR Inten    --     24.9176                 2.7445                 4.2547

                      7                      8                      9
                     A'                     A'                     A'
 Frequencies --   1091.0296              1115.5840              1145.7178
 Red. masses --      3.1723                 3.8696                 2.1958
 Frc consts  --      2.2248                 2.8374                 1.6983
 IR Inten    --     30.4855                12.2628                11.5273

                     10                     11                     12
                     A'                     A'                     A'
 Frequencies --   1198.7724              1266.1008              1476.7470
 Red. masses --      5.8162                 3.3034                 2.5686
 Frc consts  --      4.9245                 3.1200                 3.3004
 IR Inten    --      3.0417                 1.7435                20.1858

                     13                     14                     15
                     A'                     A'                     A'
 Frequencies --   1500.2488              3343.5811              3667.2480
 Red. masses --      5.0290                 1.1010                 1.0854
 Frc consts  --      6.6689                 7.2520                 8.6003
 IR Inten    --      8.9716                 2.5896               115.7194

 - Thermochemistry -
 -------------------
 Temperature   298.150 Kelvin.  Pressure   1.00000 Atm.
 Atom     1 has atomic number  6 and mass  12.00000

 Molecular mass:    70.02795 amu.
 Principal axes and moments of inertia in atomic units:
                           1         2         3
     Eigenvalues --   173.11633 177.37521 350.49154
           X           -0.63478   0.77269   0.00000
           Y            0.77269   0.63478   0.00000
           Z            0.00000   0.00000   1.00000
 This molecule is an asymmetric top.
 Rotational symmetry number  1.
 Rotational temperatures (Kelvin)      0.50032     0.48831     0.24712
 Rotational constants (GHZ):          10.42502    10.17471     5.14917
 Zero-point vibrational energy     123527.3 (Joules/Mol)
                                   29.52374 (Kcal/Mol)
 Warning -- explicit consideration of   1 degrees of freedom as
           vibrations may cause significant error
 Vibrational temperatures:    874.77  1005.31  1065.43  1191.96  1387.77
          (Kelvin)           1448.69  1569.75  1605.07  1648.43  1724.76
                             1821.63  2124.71  2158.52  4810.66  5276.35

 Zero-point correction=                           0.047049 (Hartree/Particle)
 Thermal correction to Energy=                    0.050507
 Thermal correction to Enthalpy=                  0.051451
 Thermal correction to Gibbs Free Energy=         0.020943
 Sum of electronic and zero-point Energies=           -257.528028
 Sum of electronic and thermal Energies=              -257.524571
 Sum of electronic and thermal Enthalpies=            -257.523626
 Sum of electronic and thermal Free Energies=         -257.554134

                     E (Thermal)             CV                S
                      KCal/Mol        Cal/Mol-Kelvin    Cal/Mol-Kelvin
 Total                   31.693             11.279             64.209
 Electronic               0.000              0.000              0.000
 Translational            0.889              2.981             38.656
 Rotational               0.889              2.981             23.891
 Vibrational             29.916              5.318              1.662
 Vibration     1          0.967              1.015              0.436

 Optimization completed.
    -- Stationary point found.
 Normal termination of Gaussian 09 at Tue Nov 26 04:07:50 2013.
