 Gaussian 09, Revision D.01,
 Gaussian 09:  EM64L-G09RevD.01 24-Apr-2013

 -------------------------------------------
 #MP2=FUll/cc-pVTZ opt=z-matrix freq density
 -------------------------------------------

 -----------------------------------------------------------------
 1H-tetrazole CH2N4 casno=288948 state=1 config=1 method=2 basis=6
 -----------------------------------------------------------------
 Symbolic Z-matrix:
 Charge =  0 Multiplicity = 1

 SCF Done:  E(RHF) =  -256.848466948     A.U. after   14 cycles
 E2 =    -0.1023992532D+01 EUMP2 =    -0.25787245947917D+03
 SCF Done:  E(RHF) =  -256.844629310     A.U. after   12 cycles
 E2 =    -0.1031301684D+01 EUMP2 =    -0.25787593099366D+03
 SCF Done:  E(RHF) =  -256.842922920     A.U. after   11 cycles
 E2 =    -0.1033331624D+01 EUMP2 =    -0.25787625454405D+03
 SCF Done:  E(RHF) =  -256.841842249     A.U. after   13 cycles
 E2 =    -0.1032950885D+01 EUMP2 =    -0.25787479313367D+03
 SCF Done:  E(RHF) =  -256.842180579     A.U. after   11 cycles
 E2 =    -0.1034107458D+01 EUMP2 =    -0.25787628803675D+03
 SCF Done:  E(RHF) =  -256.842350615     A.U. after   10 cycles
 E2 =    -0.1033943885D+01 EUMP2 =    -0.25787629449933D+03
 SCF Done:  E(RHF) =  -256.841929188     A.U. after   11 cycles
 E2 =    -0.1034320689D+01 EUMP2 =    -0.25787624987700D+03
 SCF Done:  E(RHF) =  -256.842331280     A.U. after    8 cycles
 E2 =    -0.1033978485D+01 EUMP2 =    -0.25787630976500D+03
 SCF Done:  E(RHF) =  -256.842195533     A.U. after   10 cycles
 E2 =    -0.1034020706D+01 EUMP2 =    -0.25787621623916D+03
 SCF Done:  E(RHF) =  -256.842366842     A.U. after    8 cycles
 E2 =    -0.1033943950D+01 EUMP2 =    -0.25787631079217D+03
 SCF Done:  E(RHF) =  -256.842484591     A.U. after   10 cycles
 E2 =    -0.1033809381D+01 EUMP2 =    -0.25787629397194D+03
 SCF Done:  E(RHF) =  -256.842392700     A.U. after    8 cycles
 E2 =    -0.1033918319D+01 EUMP2 =    -0.25787631101921D+03
 SCF Done:  E(RHF) =  -256.842409092     A.U. after    7 cycles
 E2 =    -0.1033901977D+01 EUMP2 =    -0.25787631106882D+03
 SCF Done:  E(RHF) =  -256.842418258     A.U. after    7 cycles
 E2 =    -0.1033892809D+01 EUMP2 =    -0.25787631106686D+03
 Optimization completed.
    -- Stationary point found.
 Normal termination of Gaussian 09 at Tue Nov 26 04:24:56 2013.

 ----------------------------------------------------------------------
 #N Geom=AllCheck Guess=TCheck SCRF=Check GenChk RMP2-Full/CC-pVTZ Freq
 ----------------------------------------------------------------------

 Structure from the checkpoint file:  "/tmp/rdj3/g09-15973/Gau-31780.chk"
 -----------------------------------------------------------------
 1H-tetrazole CH2N4 casno=288948 state=1 config=1 method=2 basis=6
 -----------------------------------------------------------------
 Charge =  0 Multiplicity = 1

                         Standard orientation:
 ---------------------------------------------------------------------
 Center     Atomic      Atomic             Coordinates (Angstroms)
 Number     Number       Type             X           Y           Z
 ---------------------------------------------------------------------
      1          6           0        1.063382    0.234846    0.000000
      2          7           0        0.000000    1.048084    0.000000
      3          7           0       -1.115005    0.315955    0.000000
      4          7           0       -0.717161   -0.930318    0.000000
      5          7           0        0.631150   -1.008219    0.000000
      6          1           0        2.081320    0.561296    0.000000
      7          1           0       -0.054498    2.051120    0.000000
 ---------------------------------------------------------------------

 SCF Done:  E(RHF) =  -256.842418258     A.U. after    1 cycles
 E2 =    -0.1033892803D+01 EUMP2 =    -0.25787631106079D+03
 E2 =    -0.1033892803D+01 EUMP2 =    -0.25787631106079D+03

 The electronic state is 1-A'.
 Alpha  occ. eigenvalues --  -15.68398 -15.66071 -15.64559 -15.60382 -11.33434
 Alpha  occ. eigenvalues --   -1.49321  -1.26050  -1.18721  -0.91014  -0.89047
 Alpha  occ. eigenvalues --   -0.79963  -0.67772  -0.67695  -0.56672  -0.48315
 Alpha  occ. eigenvalues --   -0.46911  -0.45713  -0.41271
 Alpha virt. eigenvalues --    0.11541   0.13055   0.15785   0.17658   0.26875
 Alpha virt. eigenvalues --    0.29480   0.35742   0.40433   0.42349   0.47260
 Alpha virt. eigenvalues --    0.51529   0.55139   0.56708   0.57612   0.59483

 Mulliken charges:
               1
     1  C   -0.110216
     2  N   -0.011662
     3  N   -0.072137
     4  N   -0.085542
     5  N   -0.127495
     6  H    0.186375
     7  H    0.220677
 Sum of Mulliken charges =   0.00000

 Dipole moment (field-independent basis, Debye):
    X=              2.4848    Y=              4.8071    Z=              0.0000  Tot=              5.4113
 Quadrupole moment (field-independent basis, Debye-Ang):
   XX=            -29.3216   YY=            -26.4676   ZZ=            -28.5423
   XY=              1.7572   XZ=              0.0000   YZ=              0.0000

  Exact polarizability:  41.056   1.136  39.533   0.000   0.000  20.661
 Approx polarizability:  40.509   0.021  42.088   0.000   0.000  22.651

                      1                      2                      3
                     A"                     A"                     A"
 Frequencies --    650.0686               710.2542               750.8132
 Red. masses --      2.3877                 1.7969                 4.4932
 Frc consts  --      0.5945                 0.5341                 1.4924
 IR Inten    --     56.7873                16.0954                18.5651

                      4                      5                      6
                     A"                     A'                     A'
 Frequencies --    872.7926               973.0130              1014.5659
 Red. masses --      1.3665                 4.5595                 5.9561
 Frc consts  --      0.6133                 2.5434                 3.6122
 IR Inten    --     19.5090                 2.6892                 3.9493

                      7                      8                      9
                     A'                     A'                     A'
 Frequencies --   1093.2809              1121.1862              1157.2214
 Red. masses --      3.9340                 3.8439                 2.3663
 Frc consts  --      2.7705                 2.8469                 1.8670
 IR Inten    --     30.4406                11.7130                13.1798

                     10                     11                     12
                     A'                     A'                     A'
 Frequencies --   1203.1635              1275.8329              1482.5944
 Red. masses --      4.3998                 2.9450                 2.4755
 Frc consts  --      3.7526                 2.8244                 3.2060
 IR Inten    --      2.4319                 1.6294                21.2184

                     13                     14                     15
                     A'                     A'                     A'
 Frequencies --   1503.1838              3347.1643              3689.8412
 Red. masses --      4.5541                 1.1005                 1.0844
 Frc consts  --      6.0629                 7.2644                 8.6990
 IR Inten    --      7.3023                 2.9546               114.4075

 - Thermochemistry -
 -------------------
 Temperature   298.150 Kelvin.  Pressure   1.00000 Atm.
 Atom     1 has atomic number  6 and mass  12.00000

 Molecular mass:    70.02795 amu.
 Principal axes and moments of inertia in atomic units:
                           1         2         3
     Eigenvalues --   170.12738 173.86102 343.98840
           X           -0.64058   0.76790   0.00000
           Y            0.76790   0.64058   0.00000
           Z            0.00000   0.00000   1.00000
 This molecule is an asymmetric top.
 Rotational symmetry number  1.
 Rotational temperatures (Kelvin)      0.50911     0.49818     0.25179
 Rotational constants (GHZ):          10.60818    10.38037     5.24652
 Zero-point vibrational energy     124680.6 (Joules/Mol)
                                   29.79939 (Kcal/Mol)
 Vibrational temperatures:    935.30  1021.90  1080.25  1255.75  1399.95
          (Kelvin)           1459.73  1572.99  1613.13  1664.98  1731.08
                             1835.64  2133.12  2162.74  4815.82  5308.85

 Zero-point correction=                           0.047488 (Hartree/Particle)
 Thermal correction to Energy=                    0.050901
 Thermal correction to Enthalpy=                  0.051845
 Thermal correction to Gibbs Free Energy=         0.021426
 Sum of electronic and zero-point Energies=           -257.828823
 Sum of electronic and thermal Energies=              -257.825410
 Sum of electronic and thermal Enthalpies=            -257.824466
 Sum of electronic and thermal Free Energies=         -257.854885

                     E (Thermal)             CV                S
                      KCal/Mol        Cal/Mol-Kelvin    Cal/Mol-Kelvin
 Total                   31.941             11.041             64.022
 Electronic               0.000              0.000              0.000
 Translational            0.889              2.981             38.656
 Rotational               0.889              2.981             23.835
 Vibrational             30.163              5.080              1.530

 Optimization completed.
    -- Stationary point found.
 Normal termination of Gaussian 09 at Tue Nov 26 04:37:10 2013.
