 Gaussian 09, Revision D.01,
 Gaussian 09:  EM64L-G09RevD.01 24-Apr-2013

 ----------------------------------
 #MP2=FUll/6-311G* opt freq density
 ----------------------------------

 -----------------------------------------------------------------
 1H-tetrazole CH2N4 casno=288948 state=1 config=1 method=2 basis=7
 -----------------------------------------------------------------
 Symbolic Z-matrix:
 Charge =  0 Multiplicity = 1

 SCF Done:  E(RHF) =  -256.810747258     A.U. after   14 cycles
 E2 =    -0.9049780725D+00 EUMP2 =    -0.25771572533047D+03
 SCF Done:  E(RHF) =  -256.805336279     A.U. after   13 cycles
 E2 =    -0.9156763040D+00 EUMP2 =    -0.25772101258319D+03
 SCF Done:  E(RHF) =  -256.803271003     A.U. after   11 cycles
 E2 =    -0.9180414125D+00 EUMP2 =    -0.25772131241540D+03
 SCF Done:  E(RHF) =  -256.802557425     A.U. after   11 cycles
 E2 =    -0.9188186429D+00 EUMP2 =    -0.25772137606760D+03
 SCF Done:  E(RHF) =  -256.802672269     A.U. after   10 cycles
 E2 =    -0.9187208805D+00 EUMP2 =    -0.25772139314939D+03
 SCF Done:  E(RHF) =  -256.802830010     A.U. after   10 cycles
 E2 =    -0.9185662762D+00 EUMP2 =    -0.25772139628652D+03
 SCF Done:  E(RHF) =  -256.802867952     A.U. after    8 cycles
 E2 =    -0.9185291838D+00 EUMP2 =    -0.25772139713559D+03
 Optimization completed.
    -- Stationary point found.
 Normal termination of Gaussian 09 at Mon Dec 16 15:40:38 2013.

 ----------------------------------------------------------------------
 #N Geom=AllCheck Guess=TCheck SCRF=Check GenChk RMP2-Full/6-311G(d) Fr
 eq
 ----------------------------------------------------------------------

 Structure from the checkpoint file:  "/tmp/rdj3/g09-26267/Gau-31963.chk"
 -----------------------------------------------------------------
 1H-tetrazole CH2N4 casno=288948 state=1 config=1 method=2 basis=7
 -----------------------------------------------------------------
 Charge =  0 Multiplicity = 1

                         Standard orientation:
 ---------------------------------------------------------------------
 Center     Atomic      Atomic             Coordinates (Angstroms)
 Number     Number       Type             X           Y           Z
 ---------------------------------------------------------------------
      1          6           0        1.069383    0.235224    0.000000
      2          7           0        0.000000    1.053354    0.000000
      3          7           0       -1.120419    0.317368    0.000000
      4          7           0       -0.720842   -0.933683    0.000000
      5          7           0        0.633555   -1.013026    0.000000
      6          1           0        2.097473    0.560521    0.000000
      7          1           0       -0.059826    2.060041    0.000000
 ---------------------------------------------------------------------

 SCF Done:  E(RHF) =  -256.802867952     A.U. after    1 cycles
 E2 =    -0.9185291860D+00 EUMP2 =    -0.25772139713771D+03
 E2 =    -0.9185291860D+00 EUMP2 =    -0.25772139713771D+03

 The electronic state is 1-A'.
 Alpha  occ. eigenvalues --  -15.68605 -15.66176 -15.64505 -15.60433 -11.34075
 Alpha  occ. eigenvalues --   -1.49177  -1.26042  -1.18823  -0.91099  -0.88993
 Alpha  occ. eigenvalues --   -0.79942  -0.67694  -0.67418  -0.56675  -0.48387
 Alpha  occ. eigenvalues --   -0.47020  -0.45617  -0.41270
 Alpha virt. eigenvalues --    0.12606   0.13132   0.16617   0.18020   0.32894
 Alpha virt. eigenvalues --    0.36524   0.37601   0.44949   0.51722   0.56524
 Alpha virt. eigenvalues --    0.61318   0.62624   0.69236   0.75285   0.77898

 Mulliken charges:
               1
     1  C    0.084078
     2  N   -0.411805
     3  N   -0.018557
     4  N   -0.098488
     5  N   -0.217615
     6  H    0.271676
     7  H    0.390712
 Sum of Mulliken charges =   0.00000

 Dipole moment (field-independent basis, Debye):
    X=              2.5549    Y=              4.9637    Z=              0.0000  Tot=              5.5826
 Quadrupole moment (field-independent basis, Debye-Ang):
   XX=            -29.3485   YY=            -26.4930   ZZ=            -28.6655
   XY=              1.7578   XZ=              0.0000   YZ=              0.0000

  Exact polarizability:  38.482   1.320  36.979   0.000   0.000  17.228
 Approx polarizability:  38.479  -0.058  40.419   0.000   0.000  18.272

                      1                      2                      3
                     A"                     A"                     A"
 Frequencies --    621.3116               704.8628               738.2579
 Red. masses --      2.5813                 1.8489                 4.0389
 Frc consts  --      0.5871                 0.5412                 1.2970
 IR Inten    --     66.0061                18.2246                20.0047

                      4                      5                      6
                     A"                     A'                     A'
 Frequencies --    823.1835               974.8788              1016.8132
 Red. masses --      1.3272                 4.4828                 5.9437
 Frc consts  --      0.5299                 2.5102                 3.6207
 IR Inten    --     31.8437                 3.4543                 3.3025

                      7                      8                      9
                     A'                     A'                     A'
 Frequencies --   1101.8962              1121.1519              1161.2775
 Red. masses --      5.1854                 3.0317                 2.4220
 Frc consts  --      3.7095                 2.2453                 1.9244
 IR Inten    --     27.9792                17.3507                13.3290

                     10                     11                     12
                     A'                     A'                     A'
 Frequencies --   1210.0703              1275.1921              1494.9507
 Red. masses --      4.5243                 3.2259                 4.6617
 Frc consts  --      3.9032                 3.0907                 6.1383
 IR Inten    --      2.5140                 1.7530                 7.3349

                     13                     14                     15
                     A'                     A'                     A'
 Frequencies --   1505.0938              3328.4032              3698.9637
 Red. masses --      2.2598                 1.1012                 1.0845
 Frc consts  --      3.0161                 7.1876                 8.7423
 IR Inten    --     26.4893                 2.0346               103.8193

 - Thermochemistry -
 -------------------
 Temperature   298.150 Kelvin.  Pressure   1.00000 Atm.
 Atom     1 has atomic number  6 and mass  12.00000

 Molecular mass:    70.02795 amu.
 Principal axes and moments of inertia in atomic units:
                           1         2         3
     Eigenvalues --   171.73600 175.59820 347.33420
           X           -0.67059   0.74183   0.00000
           Y            0.74183   0.67059   0.00000
           Z            0.00000   0.00000   1.00000
 This molecule is an asymmetric top.
 Rotational symmetry number  1.
 Rotational temperatures (Kelvin)      0.50434     0.49325     0.24937
 Rotational constants (GHZ):          10.50881    10.27767     5.19598
 Zero-point vibrational energy     124269.9 (Joules/Mol)
                                   29.70122 (Kcal/Mol)
 Vibrational temperatures:    893.93  1014.14  1062.19  1184.38  1402.63
          (Kelvin)           1462.97  1585.38  1613.09  1670.82  1741.02
                             1834.71  2150.90  2165.49  4788.82  5321.98

 Zero-point correction=                           0.047332 (Hartree/Particle)
 Thermal correction to Energy=                    0.050775
 Thermal correction to Enthalpy=                  0.051719
 Thermal correction to Gibbs Free Energy=         0.021244
 Sum of electronic and zero-point Energies=           -257.674065
 Sum of electronic and thermal Energies=              -257.670623
 Sum of electronic and thermal Enthalpies=            -257.669678
 Sum of electronic and thermal Free Energies=         -257.700153

                     E (Thermal)             CV                S
                      KCal/Mol        Cal/Mol-Kelvin    Cal/Mol-Kelvin
 Total                   31.862             11.185             64.140
 Electronic               0.000              0.000              0.000
 Translational            0.889              2.981             38.656
 Rotational               0.889              2.981             23.864
 Vibrational             30.084              5.224              1.620

 Optimization completed.
    -- Stationary point found.
 Normal termination of Gaussian 09 at Mon Dec 16 15:41:31 2013.
