 Gaussian 09, Revision D.01,
 Gaussian 09:  EM64L-G09RevD.01 24-Apr-2013

 -----------------------------------------
 #MP2=FUll/6-31G opt=z-matrix freq density
 -----------------------------------------

 -----------------------------------------------------------------
 1H-tetrazole CH2N4 casno=288948 state=1 config=1 method=2 basis=9
 -----------------------------------------------------------------
 Symbolic Z-matrix:
 Charge =  0 Multiplicity = 1

 SCF Done:  E(RHF) =  -256.588556245     A.U. after   15 cycles
 E2 =    -0.5341694182D+00 EUMP2 =    -0.25712272566293D+03
 SCF Done:  E(RHF) =  -256.583122719     A.U. after   15 cycles
 E2 =    -0.5646326129D+00 EUMP2 =    -0.25714775533197D+03
 SCF Done:  E(RHF) =  -256.573526754     A.U. after   14 cycles
 E2 =    -0.5761159959D+00 EUMP2 =    -0.25714964275031D+03
 SCF Done:  E(RHF) =  -256.572916296     A.U. after   14 cycles
 E2 =    -0.5769871520D+00 EUMP2 =    -0.25714990344810D+03
 SCF Done:  E(RHF) =  -256.571861521     A.U. after   13 cycles
 E2 =    -0.5783189920D+00 EUMP2 =    -0.25715018051336D+03
 SCF Done:  E(RHF) =  -256.571838745     A.U. after   12 cycles
 E2 =    -0.5783701381D+00 EUMP2 =    -0.25715020888297D+03
 SCF Done:  E(RHF) =  -256.573156189     A.U. after   14 cycles
 E2 =    -0.5765431295D+00 EUMP2 =    -0.25714969931875D+03
 SCF Done:  E(RHF) =  -256.571563855     A.U. after   11 cycles
 E2 =    -0.5786594531D+00 EUMP2 =    -0.25715022330816D+03
 SCF Done:  E(RHF) =  -256.571619886     A.U. after   11 cycles
 E2 =    -0.5786068093D+00 EUMP2 =    -0.25715022669527D+03
 SCF Done:  E(RHF) =  -256.573033244     A.U. after   14 cycles
 E2 =    -0.5766030947D+00 EUMP2 =    -0.25714963633898D+03
 SCF Done:  E(RHF) =  -256.571464518     A.U. after   11 cycles
 E2 =    -0.5787630083D+00 EUMP2 =    -0.25715022752597D+03
 SCF Done:  E(RHF) =  -256.571533144     A.U. after    9 cycles
 E2 =    -0.5786951837D+00 EUMP2 =    -0.25715022832747D+03
 SCF Done:  E(RHF) =  -256.571572977     A.U. after   11 cycles
 E2 =    -0.5786554017D+00 EUMP2 =    -0.25715022837850D+03
 SCF Done:  E(RHF) =  -256.571555150     A.U. after    9 cycles
 E2 =    -0.5786733210D+00 EUMP2 =    -0.25715022847060D+03
 SCF Done:  E(RHF) =  -256.571559898     A.U. after   13 cycles
 E2 =    -0.5786145132D+00 EUMP2 =    -0.25715017441122D+03
 SCF Done:  E(RHF) =  -256.571547083     A.U. after    8 cycles
 E2 =    -0.5786814047D+00 EUMP2 =    -0.25715022848761D+03
 SCF Done:  E(RHF) =  -256.571404154     A.U. after   12 cycles
 E2 =    -0.5788186217D+00 EUMP2 =    -0.25715022277593D+03
 SCF Done:  E(RHF) =  -256.571545034     A.U. after    7 cycles
 E2 =    -0.5786834582D+00 EUMP2 =    -0.25715022849195D+03
 Optimization completed.
    -- Stationary point found.
 Normal termination of Gaussian 09 at Tue Nov 26 04:40:30 2013.

 --------------------------------------------------------------------
 #N Geom=AllCheck Guess=TCheck SCRF=Check GenChk RMP2-Full/6-31G Freq
 --------------------------------------------------------------------

 Structure from the checkpoint file:  "/tmp/rdj3/g09-15973/Gau-5165.chk"
 -----------------------------------------------------------------
 1H-tetrazole CH2N4 casno=288948 state=1 config=1 method=2 basis=9
 -----------------------------------------------------------------
 Charge =  0 Multiplicity = 1

                         Standard orientation:
 ---------------------------------------------------------------------
 Center     Atomic      Atomic             Coordinates (Angstroms)
 Number     Number       Type             X           Y           Z
 ---------------------------------------------------------------------
      1          6           0        1.095512    0.260142    0.000000
      2          7           0        0.000000    1.085877    0.000000
      3          7           0       -1.171894    0.318139    0.000000
      4          7           0       -0.747794   -0.982773    0.000000
      5          7           0        0.686199   -1.028400    0.000000
      6          1           0        2.121606    0.593488    0.000000
      7          1           0       -0.060249    2.095767    0.000000
 ---------------------------------------------------------------------

 SCF Done:  E(RHF) =  -256.571545034     A.U. after    1 cycles
 E2 =    -0.5786834581D+00 EUMP2 =    -0.25715022849190D+03
 E2 =    -0.5786834581D+00 EUMP2 =    -0.25715022849190D+03

 The electronic state is 1-A'.
 Alpha  occ. eigenvalues --  -15.70831 -15.70559 -15.69079 -15.64760 -11.37531
 Alpha  occ. eigenvalues --   -1.48506  -1.25883  -1.20620  -0.91445  -0.89079
 Alpha  occ. eigenvalues --   -0.80285  -0.67070  -0.66561  -0.56341  -0.49358
 Alpha  occ. eigenvalues --   -0.47918  -0.45894  -0.42566
 Alpha virt. eigenvalues --    0.09476   0.14709   0.18773   0.23274   0.32264
 Alpha virt. eigenvalues --    0.33474   0.39391   0.46821   0.57463   0.73591
 Alpha virt. eigenvalues --    0.75920   0.83141   0.88095   0.89434   0.91724

 Mulliken charges:
               1
     1  C    0.259543
     2  N   -0.546568
     3  N    0.015138
     4  N   -0.096974
     5  N   -0.268920
     6  H    0.240167
     7  H    0.397615
 Sum of Mulliken charges =   0.00000

 Dipole moment (field-independent basis, Debye):
    X=              2.7307    Y=              5.2877    Z=              0.0000  Tot=              5.9512
 Quadrupole moment (field-independent basis, Debye-Ang):
   XX=            -30.7056   YY=            -27.9025   ZZ=            -29.3878
   XY=              2.0559   XZ=              0.0000   YZ=              0.0000

  Exact polarizability:  38.508   1.763  37.238   0.000   0.000  13.860
 Approx polarizability:  40.474  -0.499  44.078   0.000   0.000  11.761

                      1                      2                      3
                     A"                     A"                     A"
 Frequencies --    638.8915               686.1303               705.6446
 Red. masses --      5.1034                 5.1052                 1.2661
 Frc consts  --      1.2273                 1.4160                 0.3715
 IR Inten    --     39.5516                 7.7151                99.5777

                      4                      5                      6
                     A'                     A"                     A'
 Frequencies --    768.1719               805.3879               899.8096
 Red. masses --     10.4077                 1.3254                 7.8745
 Frc consts  --      3.6184                 0.5065                 3.7564
 IR Inten    --     13.5286                45.7105                15.8619

                      7                      8                      9
                     A'                     A'                     A'
 Frequencies --    947.4784               991.4295              1015.1770
 Red. masses --      5.3132                 9.0115                 8.0530
 Frc consts  --      2.8103                 5.2188                 4.8898
 IR Inten    --      8.4345                 2.5989                 1.6887

                     10                     11                     12
                     A'                     A'                     A'
 Frequencies --   1154.0308              1202.4123              1406.7696
 Red. masses --      1.8591                 2.4369                 3.1343
 Frc consts  --      1.4588                 2.0759                 3.6546
 IR Inten    --     11.9179                 9.4458                 4.8614

                     13                     14                     15
                     A'                     A'                     A'
 Frequencies --   1454.3695              3349.1934              3683.1947
 Red. masses --      1.6525                 1.1014                 1.0850
 Frc consts  --      2.0594                 7.2792                 8.6721
 IR Inten    --     51.2396                 3.4057               121.5074

 - Thermochemistry -
 -------------------
 Temperature   298.150 Kelvin.  Pressure   1.00000 Atm.
 Atom     1 has atomic number  6 and mass  12.00000

 Molecular mass:    70.02795 amu.
 Principal axes and moments of inertia in atomic units:
                           1         2         3
     Eigenvalues --   184.39453 188.03887 372.43340
           X            0.93970   0.34201   0.00000
           Y           -0.34201   0.93970   0.00000
           Z            0.00000   0.00000   1.00000
 This molecule is an asymmetric top.
 Rotational symmetry number  1.
 Rotational temperatures (Kelvin)      0.46972     0.46062     0.23256
 Rotational constants (GHZ):           9.78739     9.59770     4.84581
 Zero-point vibrational energy     117880.6 (Joules/Mol)
                                   28.17413 (Kcal/Mol)
 Vibrational temperatures:    919.22   987.19  1015.26  1105.23  1158.77
          (Kelvin)           1294.62  1363.21  1426.44  1460.61  1660.39
                             1730.00  2024.03  2092.51  4818.74  5299.29

 Zero-point correction=                           0.044898 (Hartree/Particle)
 Thermal correction to Energy=                    0.048486
 Thermal correction to Enthalpy=                  0.049430
 Thermal correction to Gibbs Free Energy=         0.018671
 Sum of electronic and zero-point Energies=           -257.105330
 Sum of electronic and thermal Energies=              -257.101742
 Sum of electronic and thermal Enthalpies=            -257.100798
 Sum of electronic and thermal Free Energies=         -257.131557

                     E (Thermal)             CV                S
                      KCal/Mol        Cal/Mol-Kelvin    Cal/Mol-Kelvin
 Total                   30.426             12.251             64.738
 Electronic               0.000              0.000              0.000
 Translational            0.889              2.981             38.656
 Rotational               0.889              2.981             24.072
 Vibrational             28.648              6.289              2.010

 Optimization completed.
    -- Stationary point found.
 Normal termination of Gaussian 09 at Tue Nov 26 04:40:39 2013.
