 Gaussian 09, Revision D.01,
 Gaussian 09:  EM64L-G09RevD.01 24-Apr-2013

 ------------------------------------------
 #MP2/aug-cc-pVTZ opt=z-matrix freq density
 ------------------------------------------

 ------------------------------------------------------------------
 1H-tetrazole CH2N4 casno=288948 state=1 config=1 method=3 basis=18
 ------------------------------------------------------------------
 Symbolic Z-matrix:
 Charge =  0 Multiplicity = 1

 SCF Done:  E(RHF) =  -256.852218671     A.U. after   14 cycles
 E2 =    -0.9684374316D+00 EUMP2 =    -0.25782065610220D+03
 SCF Done:  E(RHF) =  -256.846899378     A.U. after   12 cycles
 E2 =    -0.9787727717D+00 EUMP2 =    -0.25782567214929D+03
 SCF Done:  E(RHF) =  -256.844732950     A.U. after   12 cycles
 E2 =    -0.9813541330D+00 EUMP2 =    -0.25782608708300D+03
 SCF Done:  E(RHF) =  -256.844188703     A.U. after   13 cycles
 E2 =    -0.9815976309D+00 EUMP2 =    -0.25782578633419D+03
 SCF Done:  E(RHF) =  -256.843857525     A.U. after   11 cycles
 E2 =    -0.9822767342D+00 EUMP2 =    -0.25782613425947D+03
 SCF Done:  E(RHF) =  -256.843807782     A.U. after   10 cycles
 E2 =    -0.9823144071D+00 EUMP2 =    -0.25782612218915D+03
 SCF Done:  E(RHF) =  -256.843851268     A.U. after    9 cycles
 E2 =    -0.9822943175D+00 EUMP2 =    -0.25782614558511D+03
 SCF Done:  E(RHF) =  -256.844203545     A.U. after   11 cycles
 E2 =    -0.9819154945D+00 EUMP2 =    -0.25782611903993D+03
 SCF Done:  E(RHF) =  -256.843876193     A.U. after    8 cycles
 E2 =    -0.9822700030D+00 EUMP2 =    -0.25782614619554D+03
 SCF Done:  E(RHF) =  -256.843919093     A.U. after   10 cycles
 E2 =    -0.9821493909D+00 EUMP2 =    -0.25782606848365D+03
 SCF Done:  E(RHF) =  -256.843876078     A.U. after    7 cycles
 E2 =    -0.9822704100D+00 EUMP2 =    -0.25782614648791D+03
 SCF Done:  E(RHF) =  -256.844056112     A.U. after    9 cycles
 E2 =    -0.9820821618D+00 EUMP2 =    -0.25782613827334D+03
 SCF Done:  E(RHF) =  -256.843843820     A.U. after    9 cycles
 E2 =    -0.9823006205D+00 EUMP2 =    -0.25782614444055D+03
 SCF Done:  E(RHF) =  -256.836767518     A.U. after   13 cycles
 E2 =    -0.9835895709D+00 EUMP2 =    -0.25782035708841D+03
 SCF Done:  E(RHF) =  -256.843873732     A.U. after    3 cycles
 E2 =    -0.9822728781D+00 EUMP2 =    -0.25782614660991D+03
 SCF Done:  E(RHF) =  -256.843522210     A.U. after   10 cycles
 E2 =    -0.9826067021D+00 EUMP2 =    -0.25782612891194D+03
 SCF Done:  E(RHF) =  -256.843873785     A.U. after    5 cycles
 E2 =    -0.9822727774D+00 EUMP2 =    -0.25782614656233D+03
 Optimization completed.
    -- Stationary point found.
 Normal termination of Gaussian 09 at Tue Nov 26 01:42:44 2013.

 ----------------------------------------------------------------------
 #N Geom=AllCheck Guess=TCheck SCRF=Check GenChk RMP2(FC)/Aug-CC-pVTZ F
 req
 ----------------------------------------------------------------------

 Structure from the checkpoint file:  "/tmp/rdj3/g09-26531/Gau-7791.chk"
 ------------------------------------------------------------------
 1H-tetrazole CH2N4 casno=288948 state=1 config=1 method=3 basis=18
 ------------------------------------------------------------------
 Charge =  0 Multiplicity = 1

                         Standard orientation:
 ---------------------------------------------------------------------
 Center     Atomic      Atomic             Coordinates (Angstroms)
 Number     Number       Type             X           Y           Z
 ---------------------------------------------------------------------
      1          6           0        1.068490    0.237257    0.000000
      2          7           0        0.000000    1.051429    0.000000
      3          7           0       -1.120440    0.317968    0.000000
      4          7           0       -0.720082   -0.935738    0.000000
      5          7           0        0.633894   -1.011672    0.000000
      6          1           0        2.091984    0.564633    0.000000
      7          1           0       -0.056524    2.057922    0.000000
 ---------------------------------------------------------------------

 SCF Done:  E(RHF) =  -256.843873785     A.U. after    1 cycles
 E2 =    -0.9822727667D+00 EUMP2 =    -0.25782614655165D+03
 E2 =    -0.9822727667D+00 EUMP2 =    -0.25782614655165D+03

 The electronic state is 1-A'.
 Alpha  occ. eigenvalues --  -15.68827 -15.66686 -15.65264 -15.60982 -11.33982
 Alpha  occ. eigenvalues --   -1.49030  -1.26051  -1.18715  -0.91117  -0.89111
 Alpha  occ. eigenvalues --   -0.79929  -0.67758  -0.67689  -0.56861  -0.48709
 Alpha  occ. eigenvalues --   -0.47284  -0.45868  -0.41403
 Alpha virt. eigenvalues --    0.01450   0.03447   0.06774   0.07198   0.09374
 Alpha virt. eigenvalues --    0.10544   0.11513   0.11800   0.12479   0.13618
 Alpha virt. eigenvalues --    0.13784   0.14857   0.16423   0.16799   0.17592

 Mulliken charges:
               1
     1  C   -0.304964
     2  N    0.207371
     3  N   -0.261728
     4  N   -0.176053
     5  N   -0.231914
     6  H    0.589951
     7  H    0.177335
 Sum of Mulliken charges =   0.00000

 Dipole moment (field-independent basis, Debye):
    X=              2.5656    Y=              4.8441    Z=              0.0000  Tot=              5.4816
 Quadrupole moment (field-independent basis, Debye-Ang):
   XX=            -29.6797   YY=            -26.9246   ZZ=            -29.1199
   XY=              1.8337   XZ=              0.0000   YZ=              0.0000

  Exact polarizability:  46.233   0.841  44.841   0.000   0.000  26.861
 Approx polarizability:  43.387  -0.018  44.812   0.000   0.000  27.089

                      1                      2                      3
                     A"                     A"                     A"
 Frequencies --    626.7781               698.4308               736.7464
 Red. masses --      2.2226                 1.8839                 4.8020
 Frc consts  --      0.5145                 0.5414                 1.5357
 IR Inten    --     60.6353                13.0489                15.3630

                      4                      5                      6
                     A"                     A'                     A'
 Frequencies --    837.2428               958.4328              1003.8763
 Red. masses --      1.3500                 4.3711                 6.0440
 Frc consts  --      0.5576                 2.3657                 3.5887
 IR Inten    --     21.2142                 2.5392                 2.6661

                      7                      8                      9
                     A'                     A'                     A'
 Frequencies --   1075.8986              1106.6315              1138.6640
 Red. masses --      4.4025                 3.4946                 2.9065
 Frc consts  --      3.0026                 2.5215                 2.2203
 IR Inten    --     31.7274                12.5502                10.7425

                     10                     11                     12
                     A'                     A'                     A'
 Frequencies --   1179.8026              1256.3931              1466.5873
 Red. masses --      3.2148                 3.0420                 2.4299
 Frc consts  --      2.6364                 2.8292                 3.0793
 IR Inten    --      1.7708                 1.2212                20.5662

                     13                     14                     15
                     A'                     A'                     A'
 Frequencies --   1479.5131              3320.3723              3656.2792
 Red. masses --      4.7086                 1.1011                 1.0848
 Frc consts  --      6.0727                 7.1522                 8.5442
 IR Inten    --      9.9181                 3.7571               115.0537

 - Thermochemistry -
 -------------------
 Temperature   298.150 Kelvin.  Pressure   1.00000 Atm.
 Atom     1 has atomic number  6 and mass  12.00000

 Molecular mass:    70.02795 amu.
 Principal axes and moments of inertia in atomic units:
                           1         2         3
     Eigenvalues --   171.73907 175.29598 347.03505
           X           -0.65740   0.75354   0.00000
           Y            0.75354   0.65740   0.00000
           Z            0.00000   0.00000   1.00000
 This molecule is an asymmetric top.
 Rotational symmetry number  1.
 Rotational temperatures (Kelvin)      0.50433     0.49410     0.24958
 Rotational constants (GHZ):          10.50862    10.29539     5.20046
 Zero-point vibrational energy     122866.3 (Joules/Mol)
                                   29.36576 (Kcal/Mol)
 Vibrational temperatures:    901.79  1004.88  1060.01  1204.60  1378.97
          (Kelvin)           1444.35  1547.98  1592.19  1638.28  1697.47
                             1807.67  2110.09  2128.69  4777.27  5260.56

 Zero-point correction=                           0.046797 (Hartree/Particle)
 Thermal correction to Energy=                    0.050251
 Thermal correction to Enthalpy=                  0.051195
 Thermal correction to Gibbs Free Energy=         0.020708
 Sum of electronic and zero-point Energies=           -257.779349
 Sum of electronic and thermal Energies=              -257.775895
 Sum of electronic and thermal Enthalpies=            -257.774951
 Sum of electronic and thermal Free Energies=         -257.805438

                     E (Thermal)             CV                S
                      KCal/Mol        Cal/Mol-Kelvin    Cal/Mol-Kelvin
 Total                   31.533             11.297             64.165
 Electronic               0.000              0.000              0.000
 Translational            0.889              2.981             38.656
 Rotational               0.889              2.981             23.861
 Vibrational             29.756              5.336              1.648

 Normal termination of Gaussian 09 at Tue Nov 26 03:04:16 2013.
