 Gaussian 09, Revision D.01,
 Gaussian 09:  EM64L-G09RevD.01 24-Apr-2013

 --------------------------------------
 #MP2/LANL2DZ opt=z-matrix freq density
 --------------------------------------

 ------------------------------------------------------------------
 1H-tetrazole CH2N4 casno=288948 state=1 config=1 method=3 basis=15
 ------------------------------------------------------------------
 Symbolic Z-matrix:
 Charge =  0 Multiplicity = 1

 SCF Done:  E(RHF) =  -256.634357328     A.U. after   15 cycles
 E2 =    -0.5051532801D+00 EUMP2 =    -0.25713951060804D+03
 SCF Done:  E(RHF) =  -256.630822860     A.U. after   15 cycles
 E2 =    -0.5433749187D+00 EUMP2 =    -0.25717419777912D+03
 SCF Done:  E(RHF) =  -256.616583268     A.U. after   14 cycles
 E2 =    -0.5602286621D+00 EUMP2 =    -0.25717681193032D+03
 SCF Done:  E(RHF) =  -256.617201049     A.U. after   14 cycles
 E2 =    -0.5605941124D+00 EUMP2 =    -0.25717779516098D+03
 SCF Done:  E(RHF) =  -256.613871065     A.U. after   14 cycles
 E2 =    -0.5628607313D+00 EUMP2 =    -0.25717673179625D+03
 SCF Done:  E(RHF) =  -256.614730931     A.U. after   13 cycles
 E2 =    -0.5632102875D+00 EUMP2 =    -0.25717794121897D+03
 SCF Done:  E(RHF) =  -256.614923217     A.U. after   13 cycles
 E2 =    -0.5630554755D+00 EUMP2 =    -0.25717797869211D+03
 SCF Done:  E(RHF) =  -256.614955338     A.U. after   12 cycles
 E2 =    -0.5630378824D+00 EUMP2 =    -0.25717799322083D+03
 SCF Done:  E(RHF) =  -256.614784168     A.U. after   12 cycles
 E2 =    -0.5632196886D+00 EUMP2 =    -0.25717800385688D+03
 SCF Done:  E(RHF) =  -256.614723406     A.U. after   10 cycles
 E2 =    -0.5632827177D+00 EUMP2 =    -0.25717800612399D+03
 SCF Done:  E(RHF) =  -256.614674039     A.U. after   11 cycles
 E2 =    -0.5633328458D+00 EUMP2 =    -0.25717800688484D+03
 SCF Done:  E(RHF) =  -256.614706639     A.U. after    8 cycles
 E2 =    -0.5633003490D+00 EUMP2 =    -0.25717800698808D+03
 SCF Done:  E(RHF) =  -256.614857924     A.U. after   11 cycles
 E2 =    -0.5631483483D+00 EUMP2 =    -0.25717800627190D+03
 SCF Done:  E(RHF) =  -256.614736186     A.U. after    9 cycles
 E2 =    -0.5632708547D+00 EUMP2 =    -0.25717800704021D+03
 Optimization completed.
    -- Stationary point found.
 Normal termination of Gaussian 09 at Mon Nov 25 17:00:34 2013.

 ---------------------------------------------------------------------
 #N Geom=AllCheck Guess=TCheck SCRF=Check GenChk RMP2(FC)/LANL2DZ Freq
 ---------------------------------------------------------------------

 Structure from the checkpoint file:  "/tmp/rdj3/g09-26531/Gau-2159.chk"
 ------------------------------------------------------------------
 1H-tetrazole CH2N4 casno=288948 state=1 config=1 method=3 basis=15
 ------------------------------------------------------------------
 Charge =  0 Multiplicity = 1

                         Standard orientation:
 ---------------------------------------------------------------------
 Center     Atomic      Atomic             Coordinates (Angstroms)
 Number     Number       Type             X           Y           Z
 ---------------------------------------------------------------------
      1          6           0        1.107180    0.266890    0.000000
      2          7           0        0.000000    1.094000    0.000000
      3          7           0       -1.186848    0.325251    0.000000
      4          7           0       -0.749451   -0.999622    0.000000
      5          7           0        0.692533   -1.035688    0.000000
      6          1           0        2.135770    0.603555    0.000000
      7          1           0       -0.072489    2.107516    0.000000
 ---------------------------------------------------------------------

 SCF Done:  E(RHF) =  -256.614736186     A.U. after    1 cycles
 E2 =    -0.5632708529D+00 EUMP2 =    -0.25717800703840D+03
 E2 =    -0.5632708529D+00 EUMP2 =    -0.25717800703840D+03

 The electronic state is 1-A'.
 Alpha  occ. eigenvalues --  -15.70532 -15.69884 -15.68877 -15.64524 -11.38108
 Alpha  occ. eigenvalues --   -1.47052  -1.25412  -1.19693  -0.91462  -0.88820
 Alpha  occ. eigenvalues --   -0.79958  -0.66821  -0.65993  -0.56310  -0.49849
 Alpha  occ. eigenvalues --   -0.48026  -0.45853  -0.42297
 Alpha virt. eigenvalues --    0.08041   0.13038   0.19673   0.24884   0.27073
 Alpha virt. eigenvalues --    0.28842   0.34541   0.44888   0.44911   0.47538
 Alpha virt. eigenvalues --    0.54551   0.65797   0.67931   0.68338   0.69042

 Mulliken charges:
               1
     1  C   -0.050369
     2  N   -0.399192
     3  N    0.004842
     4  N   -0.087741
     5  N   -0.122047
     6  H    0.269628
     7  H    0.384878
 Sum of Mulliken charges =   0.00000

 Dipole moment (field-independent basis, Debye):
    X=              2.7271    Y=              5.4153    Z=              0.0000  Tot=              6.0632
 Quadrupole moment (field-independent basis, Debye-Ang):
   XX=            -31.1604   YY=            -28.4495   ZZ=            -29.8408
   XY=              2.1792   XZ=              0.0000   YZ=              0.0000

  Exact polarizability:  41.537   1.691  39.998   0.000   0.000  15.522
 Approx polarizability:  42.405  -0.613  45.401   0.000   0.000  12.939

                      1                      2                      3
                     A"                     A"                     A"
 Frequencies --    639.0184               678.1443               756.1245
 Red. masses --      4.3004                 9.7280                 1.1327
 Frc consts  --      1.0346                 2.6358                 0.3815
 IR Inten    --      9.0526                 0.1939               139.7264

                      4                      5                      6
                     A"                     A'                     A'
 Frequencies --    778.6597               811.8884               871.8656
 Red. masses --      1.3906                 8.1607                 8.3685
 Frc consts  --      0.4968                 3.1694                 3.7480
 IR Inten    --     46.3368                 9.1969                12.5099

                      7                      8                      9
                     A'                     A'                     A'
 Frequencies --    959.3339               978.9752              1004.0023
 Red. masses --      6.2565                 7.8864                 7.7505
 Frc consts  --      3.3925                 4.4532                 4.6031
 IR Inten    --     15.5398                 2.3402                 3.6404

                     10                     11                     12
                     A'                     A'                     A'
 Frequencies --   1148.4649              1173.3489              1374.7990
 Red. masses --      1.7564                 2.7891                 3.5243
 Frc consts  --      1.3649                 2.2624                 3.9247
 IR Inten    --     13.6249                 7.3862                 9.3929

                     13                     14                     15
                     A'                     A'                     A'
 Frequencies --   1445.3525              3327.4305              3672.3512
 Red. masses --      1.5369                 1.1015                 1.0856
 Frc consts  --      1.8917                 7.1852                 8.6256
 IR Inten    --     50.1646                 1.7895               122.9711

 - Thermochemistry -
 -------------------
 Temperature   298.150 Kelvin.  Pressure   1.00000 Atm.
 Atom     1 has atomic number  6 and mass  12.00000

 Molecular mass:    70.02795 amu.
 Principal axes and moments of inertia in atomic units:
                           1         2         3
     Eigenvalues --   188.22202 191.76415 379.98617
           X            0.92626   0.37689   0.00000
           Y           -0.37689   0.92626   0.00000
           Z            0.00000   0.00000   1.00000
 This molecule is an asymmetric top.
 Rotational symmetry number  1.
 Rotational temperatures (Kelvin)      0.46017     0.45167     0.22794
 Rotational constants (GHZ):           9.58836     9.41125     4.74949
 Zero-point vibrational energy     117352.2 (Joules/Mol)
                                   28.04785 (Kcal/Mol)
 Vibrational temperatures:    919.40   975.70  1087.89  1120.32  1168.12
          (Kelvin)           1254.42  1380.27  1408.53  1444.53  1652.38
                             1688.19  1978.03  2079.54  4787.42  5283.69

 Zero-point correction=                           0.044697 (Hartree/Particle)
 Thermal correction to Energy=                    0.048276
 Thermal correction to Enthalpy=                  0.049220
 Thermal correction to Gibbs Free Energy=         0.018446
 Sum of electronic and zero-point Energies=           -257.133310
 Sum of electronic and thermal Energies=              -257.129731
 Sum of electronic and thermal Enthalpies=            -257.128787
 Sum of electronic and thermal Free Energies=         -257.159561

                     E (Thermal)             CV                S
                      KCal/Mol        Cal/Mol-Kelvin    Cal/Mol-Kelvin
 Total                   30.294             12.234             64.770
 Electronic               0.000              0.000              0.000
 Translational            0.889              2.981             38.656
 Rotational               0.889              2.981             24.132
 Vibrational             28.516              6.273              1.982

 Optimization completed.
    -- Stationary point found.
 Normal termination of Gaussian 09 at Mon Nov 25 17:00:43 2013.
