 Gaussian 09, Revision D.01,
 Gaussian 09:  EM64L-G09RevD.01 24-Apr-2013

 -------------------------------------
 #MP2/6-31G* opt=z-matrix freq density
 -------------------------------------

 -----------------------------------------------------------------
 1H-tetrazole CH2N4 casno=288948 state=1 config=1 method=3 basis=1
 -----------------------------------------------------------------
 Symbolic Z-matrix:
 Charge =  0 Multiplicity = 1

 SCF Done:  E(RHF) =  -256.754076285     A.U. after   15 cycles
 E2 =    -0.7737063668D+00 EUMP2 =    -0.25752778265216D+03
 SCF Done:  E(RHF) =  -256.747500660     A.U. after   13 cycles
 E2 =    -0.7877864036D+00 EUMP2 =    -0.25753528706312D+03
 SCF Done:  E(RHF) =  -256.745342722     A.U. after   13 cycles
 E2 =    -0.7903483492D+00 EUMP2 =    -0.25753569107155D+03
 SCF Done:  E(RHF) =  -256.744789555     A.U. after   13 cycles
 E2 =    -0.7908115934D+00 EUMP2 =    -0.25753560114815D+03
 SCF Done:  E(RHF) =  -256.744529339     A.U. after   11 cycles
 E2 =    -0.7912108505D+00 EUMP2 =    -0.25753574018968D+03
 SCF Done:  E(RHF) =  -256.743819868     A.U. after   12 cycles
 E2 =    -0.7915268925D+00 EUMP2 =    -0.25753534676022D+03
 SCF Done:  E(RHF) =  -256.744388559     A.U. after   10 cycles
 E2 =    -0.7913569817D+00 EUMP2 =    -0.25753574554045D+03
 SCF Done:  E(RHF) =  -256.744185227     A.U. after   12 cycles
 E2 =    -0.7915535504D+00 EUMP2 =    -0.25753573877728D+03
 SCF Done:  E(RHF) =  -256.744432873     A.U. after    9 cycles
 E2 =    -0.7913130508D+00 EUMP2 =    -0.25753574592412D+03
 SCF Done:  E(RHF) =  -256.744216861     A.U. after   12 cycles
 E2 =    -0.7914906207D+00 EUMP2 =    -0.25753570748152D+03
 SCF Done:  E(RHF) =  -256.744428702     A.U. after    8 cycles
 E2 =    -0.7913175249D+00 EUMP2 =    -0.25753574622724D+03
 SCF Done:  E(RHF) =  -256.744426363     A.U. after   10 cycles
 E2 =    -0.7913131015D+00 EUMP2 =    -0.25753573946465D+03
 SCF Done:  E(RHF) =  -256.744434302     A.U. after    7 cycles
 E2 =    -0.7913119347D+00 EUMP2 =    -0.25753574623693D+03
 SCF Done:  E(RHF) =  -256.744440196     A.U. after    7 cycles
 E2 =    -0.7913060429D+00 EUMP2 =    -0.25753574623918D+03
 Optimization completed.
    -- Stationary point found.
 Normal termination of Gaussian 09 at Tue Nov 26 03:14:30 2013.

 ----------------------------------------------------------------------
 #N Geom=AllCheck Guess=TCheck SCRF=Check GenChk RMP2(FC)/6-31G(d) Freq
 ----------------------------------------------------------------------

 Structure from the checkpoint file:  "/tmp/rdj3/g09-26531/Gau-12906.chk"
 -----------------------------------------------------------------
 1H-tetrazole CH2N4 casno=288948 state=1 config=1 method=3 basis=1
 -----------------------------------------------------------------
 Charge =  0 Multiplicity = 1

                         Standard orientation:
 ---------------------------------------------------------------------
 Center     Atomic      Atomic             Coordinates (Angstroms)
 Number     Number       Type             X           Y           Z
 ---------------------------------------------------------------------
      1          6           0        1.072488    0.239381    0.000000
      2          7           0        0.000000    1.055892    0.000000
      3          7           0       -1.127941    0.317563    0.000000
      4          7           0       -0.721941   -0.941018    0.000000
      5          7           0        0.639255   -1.014296    0.000000
      6          1           0        2.100627    0.568379    0.000000
      7          1           0       -0.061169    2.068350    0.000000
 ---------------------------------------------------------------------

 SCF Done:  E(RHF) =  -256.744440196     A.U. after    1 cycles
 E2 =    -0.7913060427D+00 EUMP2 =    -0.25753574623902D+03
 E2 =    -0.7913060427D+00 EUMP2 =    -0.25753574623902D+03

 The electronic state is 1-A'.
 Alpha  occ. eigenvalues --  -15.69407 -15.67088 -15.65463 -15.61266 -11.34406
 Alpha  occ. eigenvalues --   -1.48414  -1.25570  -1.18464  -0.90725  -0.88676
 Alpha  occ. eigenvalues --   -0.79575  -0.67339  -0.66981  -0.56442  -0.48292
 Alpha  occ. eigenvalues --   -0.46915  -0.45331  -0.41055
 Alpha virt. eigenvalues --    0.13321   0.18360   0.19470   0.25031   0.36301
 Alpha virt. eigenvalues --    0.38323   0.46142   0.49542   0.64132   0.73565
 Alpha virt. eigenvalues --    0.73977   0.82298   0.82581   0.88788   0.91413

 Mulliken charges:
               1
     1  C    0.195437
     2  N   -0.433367
     3  N   -0.038824
     4  N   -0.093363
     5  N   -0.273733
     6  H    0.234678
     7  H    0.409172
 Sum of Mulliken charges =   0.00000

 Dipole moment (field-independent basis, Debye):
    X=              2.5837    Y=              4.9543    Z=              0.0000  Tot=              5.5875
 Quadrupole moment (field-independent basis, Debye-Ang):
   XX=            -29.1797   YY=            -26.3216   ZZ=            -28.6250
   XY=              1.7755   XZ=              0.0000   YZ=              0.0000

  Exact polarizability:  37.539   1.315  36.201   0.000   0.000  15.373
 Approx polarizability:  38.475  -0.147  40.506   0.000   0.000  16.879

                      1                      2                      3
                     A"                     A"                     A"
 Frequencies --    606.4059               697.8146               735.1252
 Red. masses --      2.3690                 1.8950                 4.8452
 Frc consts  --      0.5133                 0.5437                 1.5427
 IR Inten    --     73.4467                16.9053                15.4468

                      4                      5                      6
                     A"                     A'                     A'
 Frequencies --    810.7866               970.0500              1012.1192
 Red. masses --      1.2928                 4.7786                 6.1132
 Frc consts  --      0.5007                 2.6493                 3.6897
 IR Inten    --     31.8818                 2.7788                 3.6125

                      7                      8                      9
                     A'                     A'                     A'
 Frequencies --   1093.9355              1118.4579              1157.8771
 Red. masses --      4.3168                 4.0963                 2.7387
 Frc consts  --      3.0436                 3.0192                 2.1633
 IR Inten    --     31.0227                10.5486                16.7993

                     10                     11                     12
                     A'                     A'                     A'
 Frequencies --   1203.9614              1277.5456              1492.6504
 Red. masses --      3.0366                 2.9180                 2.4084
 Frc consts  --      2.5933                 2.8060                 3.1616
 IR Inten    --      1.6760                 2.2039                28.1822

                     13                     14                     15
                     A'                     A'                     A'
 Frequencies --   1504.3503              3350.1305              3660.7779
 Red. masses --      4.6713                 1.1009                 1.0847
 Frc consts  --      6.2286                 7.2795                 8.5647
 IR Inten    --      8.3849                 2.4720               114.3554

 - Thermochemistry -
 -------------------
 Temperature   298.150 Kelvin.  Pressure   1.00000 Atm.
 Atom     1 has atomic number  6 and mass  12.00000

 Molecular mass:    70.02795 amu.
 Principal axes and moments of inertia in atomic units:
                           1         2         3
     Eigenvalues --   173.34927 176.93147 350.28074
           X           -0.69778   0.71632   0.00000
           Y            0.71632   0.69778   0.00000
           Z            0.00000   0.00000   1.00000
 This molecule is an asymmetric top.
 Rotational symmetry number  1.
 Rotational temperatures (Kelvin)      0.49965     0.48953     0.24727
 Rotational constants (GHZ):          10.41101    10.20023     5.15227
 Zero-point vibrational energy     123765.6 (Joules/Mol)
                                   29.58068 (Kcal/Mol)
 Warning -- explicit consideration of   1 degrees of freedom as
           vibrations may cause significant error
 Vibrational temperatures:    872.48  1004.00  1057.68  1166.54  1395.68
          (Kelvin)           1456.21  1573.93  1609.21  1665.92  1732.23
                             1838.10  2147.59  2164.42  4820.08  5267.04

 Zero-point correction=                           0.047140 (Hartree/Particle)
 Thermal correction to Energy=                    0.050601
 Thermal correction to Enthalpy=                  0.051545
 Thermal correction to Gibbs Free Energy=         0.021033
 Sum of electronic and zero-point Energies=           -257.488606
 Sum of electronic and thermal Energies=              -257.485145
 Sum of electronic and thermal Enthalpies=            -257.484201
 Sum of electronic and thermal Free Energies=         -257.514714

                     E (Thermal)             CV                S
                      KCal/Mol        Cal/Mol-Kelvin    Cal/Mol-Kelvin
 Total                   31.752             11.281             64.218
 Electronic               0.000              0.000              0.000
 Translational            0.889              2.981             38.656
 Rotational               0.889              2.981             23.889
 Vibrational             29.975              5.320              1.673
 Vibration     1          0.965              1.018              0.439

 Optimization completed.
    -- Stationary point found.
 Normal termination of Gaussian 09 at Tue Nov 26 03:15:05 2013.
