 Gaussian 09, Revision D.01,
 Gaussian 09:  EM64L-G09RevD.01 24-Apr-2013

 -------------------------------
 #MP2/CEP-121G* opt freq density
 -------------------------------

 ------------------------------------------------------------------
 1H-tetrazole CH2N4 casno=288948 state=1 config=1 method=3 basis=14
 ------------------------------------------------------------------
 Symbolic Z-matrix:
 Charge =  0 Multiplicity = 1

 SCF Done:  E(RHF) =  -45.3090772573     A.U. after   15 cycles
 E2 =    -0.7816108357D+00 EUMP2 =    -0.46090688092993D+02
 SCF Done:  E(RHF) =  -45.3027285224     A.U. after   15 cycles
 E2 =    -0.7999368748D+00 EUMP2 =    -0.46102665397156D+02
 SCF Done:  E(RHF) =  -45.2990141951     A.U. after   13 cycles
 E2 =    -0.8041811544D+00 EUMP2 =    -0.46103195349478D+02
 SCF Done:  E(RHF) =  -45.2978293318     A.U. after   13 cycles
 E2 =    -0.8054502959D+00 EUMP2 =    -0.46103279627756D+02
 SCF Done:  E(RHF) =  -45.2980974350     A.U. after   12 cycles
 E2 =    -0.8052250063D+00 EUMP2 =    -0.46103322441311D+02
 SCF Done:  E(RHF) =  -45.2983258997     A.U. after   12 cycles
 E2 =    -0.8050046212D+00 EUMP2 =    -0.46103330520939D+02
 SCF Done:  E(RHF) =  -45.2983607746     A.U. after    9 cycles
 E2 =    -0.8049706498D+00 EUMP2 =    -0.46103331424448D+02
 Optimization completed.
    -- Stationary point found.
 Normal termination of Gaussian 09 at Mon Dec 16 15:40:09 2013.

 ----------------------------------------------------------------------
 #N Geom=AllCheck Guess=TCheck SCRF=Check GenChk RMP2(FC)/CEP-121G(d) F
 req
 ----------------------------------------------------------------------

 Structure from the checkpoint file:  "/tmp/rdj3/g09-14118/Gau-14174.chk"
 ------------------------------------------------------------------
 1H-tetrazole CH2N4 casno=288948 state=1 config=1 method=3 basis=14
 ------------------------------------------------------------------
 Charge =  0 Multiplicity = 1

                         Standard orientation:
 ---------------------------------------------------------------------
 Center     Atomic      Atomic             Coordinates (Angstroms)
 Number     Number       Type             X           Y           Z
 ---------------------------------------------------------------------
      1          6           0        1.080010    0.242205    0.000000
      2          7           0        0.000000    1.064586    0.000000
      3          7           0       -1.138888    0.321120    0.000000
      4          7           0       -0.726756   -0.950408    0.000000
      5          7           0        0.647412   -1.021673    0.000000
      6          1           0        2.109439    0.572072    0.000000
      7          1           0       -0.061872    2.079317    0.000000
 ---------------------------------------------------------------------

 SCF Done:  E(RHF) =  -45.2983607746     A.U. after    1 cycles
 E2 =    -0.8049706538D+00 EUMP2 =    -0.46103331428435D+02
 E2 =    -0.8049706538D+00 EUMP2 =    -0.46103331428435D+02

 The electronic state is 1-A'.
 Alpha  occ. eigenvalues --   -1.48496  -1.26092  -1.19003  -0.91189  -0.88901
 Alpha  occ. eigenvalues --   -0.79568  -0.67417  -0.66644  -0.56484  -0.48560
 Alpha  occ. eigenvalues --   -0.47229  -0.45388  -0.41173
 Alpha virt. eigenvalues --    0.11656   0.11833   0.15880   0.16429   0.25839
 Alpha virt. eigenvalues --    0.28077   0.33961   0.39387   0.44105   0.48298
 Alpha virt. eigenvalues --    0.52493   0.55298   0.60095   0.62274   0.64531

 Mulliken charges:
               1
     1  C   -0.229278
     2  N   -0.193959
     3  N   -0.055787
     4  N   -0.102508
     5  N   -0.043370
     6  H    0.225649
     7  H    0.399253
 Sum of Mulliken charges =   0.00000

 Dipole moment (field-independent basis, Debye):
    X=              2.6055    Y=              5.0413    Z=              0.0000  Tot=              5.6748
 Quadrupole moment (field-independent basis, Debye-Ang):
   XX=            -29.4779   YY=            -26.5998   ZZ=            -28.9889
   XY=              1.8782   XZ=              0.0000   YZ=              0.0000

  Exact polarizability:  41.652   1.289  39.836   0.000   0.000  20.084
 Approx polarizability:  40.854  -0.167  42.576   0.000   0.000  21.211

                      1                      2                      3
                     A"                     A"                     A"
 Frequencies --    595.2838               685.1544               716.2445
 Red. masses --      2.4758                 2.0873                 3.5324
 Frc consts  --      0.5169                 0.5773                 1.0677
 IR Inten    --     65.6415                12.1720                22.5101

                      4                      5                      6
                     A"                     A'                     A'
 Frequencies --    802.5849               945.7103               993.6201
 Red. masses --      1.3075                 4.5814                 6.4104
 Frc consts  --      0.4962                 2.4141                 3.7288
 IR Inten    --     40.4200                 2.9490                 2.6502

                      7                      8                      9
                     A'                     A'                     A'
 Frequencies --   1072.5370              1096.9701              1130.5359
 Red. masses --      3.9421                 4.4472                 3.2253
 Frc consts  --      2.6718                 3.1530                 2.4288
 IR Inten    --     33.3296                 9.5461                16.6311

                     10                     11                     12
                     A'                     A'                     A'
 Frequencies --   1173.4314              1250.4544              1465.0292
 Red. masses --      2.5722                 3.1642                 2.5983
 Frc consts  --      2.0868                 2.9150                 3.2858
 IR Inten    --      2.3834                 1.5447                18.7049

                     13                     14                     15
                     A'                     A'                     A'
 Frequencies --   1471.9485              3317.1468              3643.9766
 Red. masses --      3.7955                 1.1011                 1.0848
 Frc consts  --      4.8451                 7.1387                 8.4870
 IR Inten    --     16.3509                 1.6012               100.4248

 - Thermochemistry -
 -------------------
 Temperature   298.150 Kelvin.  Pressure   1.00000 Atm.
 Atom     1 has atomic number  6 and mass  12.00000

 Molecular mass:    70.02795 amu.
 Principal axes and moments of inertia in atomic units:
                           1         2         3
     Eigenvalues --   176.05638 180.07274 356.12912
           X           -0.70169   0.71248   0.00000
           Y            0.71248   0.70169   0.00000
           Z            0.00000   0.00000   1.00000
 This molecule is an asymmetric top.
 Rotational symmetry number  1.
 Rotational temperatures (Kelvin)      0.49197     0.48099     0.24321
 Rotational constants (GHZ):          10.25093    10.02229     5.06766
 Zero-point vibrational energy     121783.6 (Joules/Mol)
                                   29.10698 (Kcal/Mol)
 Warning -- explicit consideration of   1 degrees of freedom as
           vibrations may cause significant error
 Vibrational temperatures:    856.48   985.78  1030.51  1154.74  1360.66
          (Kelvin)           1429.60  1543.14  1578.29  1626.59  1688.30
                             1799.12  2107.85  2117.80  4772.63  5242.86

 Zero-point correction=                           0.046385 (Hartree/Particle)
 Thermal correction to Energy=                    0.049885
 Thermal correction to Enthalpy=                  0.050829
 Thermal correction to Gibbs Free Energy=         0.020242
 Sum of electronic and zero-point Energies=            -46.056947
 Sum of electronic and thermal Energies=               -46.053447
 Sum of electronic and thermal Enthalpies=             -46.052503
 Sum of electronic and thermal Free Energies=          -46.083090

                     E (Thermal)             CV                S
                      KCal/Mol        Cal/Mol-Kelvin    Cal/Mol-Kelvin
 Total                   31.303             11.537             64.376
 Electronic               0.000              0.000              0.000
 Translational            0.889              2.981             38.656
 Rotational               0.889              2.981             23.938
 Vibrational             29.526              5.576              1.781
 Vibration     1          0.953              1.042              0.458

 Optimization completed.
    -- Stationary point found.
 Normal termination of Gaussian 09 at Mon Dec 16 15:40:52 2013.
