 Gaussian 09, Revision D.01,
 Gaussian 09:  EM64L-G09RevD.01 24-Apr-2013

 ---------------------------------
 #MP2/aug-cc-pVDZ opt freq density
 ---------------------------------

 ------------------------------------------------------------------
 1H-tetrazole CH2N4 casno=288948 state=1 config=1 method=3 basis=17
 ------------------------------------------------------------------
 Symbolic Z-matrix:
 Charge =  0 Multiplicity = 1

 SCF Done:  E(RHF) =  -256.797933873     A.U. after   15 cycles
 E2 =    -0.8075654250D+00 EUMP2 =    -0.25760549929751D+03
 SCF Done:  E(RHF) =  -256.790701802     A.U. after   13 cycles
 E2 =    -0.8242420906D+00 EUMP2 =    -0.25761494389270D+03
 SCF Done:  E(RHF) =  -256.787452243     A.U. after   13 cycles
 E2 =    -0.8279486404D+00 EUMP2 =    -0.25761540088362D+03
 SCF Done:  E(RHF) =  -256.786226923     A.U. after   13 cycles
 E2 =    -0.8292714326D+00 EUMP2 =    -0.25761549835559D+03
 SCF Done:  E(RHF) =  -256.786537803     A.U. after   11 cycles
 E2 =    -0.8290007468D+00 EUMP2 =    -0.25761553854997D+03
 SCF Done:  E(RHF) =  -256.786802159     A.U. after   12 cycles
 E2 =    -0.8287438116D+00 EUMP2 =    -0.25761554597070D+03
 Optimization completed.
    -- Stationary point found.
 Normal termination of Gaussian 09 at Mon Dec 16 15:42:10 2013.

 ----------------------------------------------------------------------
 #N Geom=AllCheck Guess=TCheck SCRF=Check GenChk RMP2(FC)/Aug-CC-pVDZ F
 req
 ----------------------------------------------------------------------

 Structure from the checkpoint file:  "/tmp/rdj3/g09-14118/Gau-15110.chk"
 ------------------------------------------------------------------
 1H-tetrazole CH2N4 casno=288948 state=1 config=1 method=3 basis=17
 ------------------------------------------------------------------
 Charge =  0 Multiplicity = 1

                         Standard orientation:
 ---------------------------------------------------------------------
 Center     Atomic      Atomic             Coordinates (Angstroms)
 Number     Number       Type             X           Y           Z
 ---------------------------------------------------------------------
      1          6           0        1.077815    0.239548    0.000000
      2          7           0        0.000000    1.059256    0.000000
      3          7           0       -1.130326    0.322646    0.000000
      4          7           0       -0.725889   -0.943944    0.000000
      5          7           0        0.638793   -1.020930    0.000000
      6          1           0        2.111540    0.570893    0.000000
      7          1           0       -0.056476    2.072627    0.000000
 ---------------------------------------------------------------------

 SCF Done:  E(RHF) =  -256.786802159     A.U. after    1 cycles
 E2 =    -0.8287438115D+00 EUMP2 =    -0.25761554597057D+03
 E2 =    -0.8287438115D+00 EUMP2 =    -0.25761554597057D+03

 The electronic state is 1-A'.
 Alpha  occ. eigenvalues --  -15.69668 -15.67713 -15.66368 -15.62193 -11.35231
 Alpha  occ. eigenvalues --   -1.48390  -1.25880  -1.18542  -0.91037  -0.88927
 Alpha  occ. eigenvalues --   -0.79522  -0.67487  -0.67006  -0.56779  -0.48929
 Alpha  occ. eigenvalues --   -0.47506  -0.45585  -0.41163
 Alpha virt. eigenvalues --    0.01895   0.04125   0.08052   0.08625   0.10909
 Alpha virt. eigenvalues --    0.11893   0.12691   0.14259   0.15586   0.15932
 Alpha virt. eigenvalues --    0.16650   0.17912   0.19770   0.19889   0.21482

 Mulliken charges:
               1
     1  C    0.902927
     2  N   -0.011185
     3  N   -0.178255
     4  N   -0.286542
     5  N   -0.302267
     6  H   -0.120495
     7  H   -0.004184
 Sum of Mulliken charges =   0.00000

 Dipole moment (field-independent basis, Debye):
    X=              2.5911    Y=              4.8807    Z=              0.0000  Tot=              5.5259
 Quadrupole moment (field-independent basis, Debye-Ang):
   XX=            -29.9778   YY=            -27.2380   ZZ=            -29.6565
   XY=              1.8598   XZ=              0.0000   YZ=              0.0000

  Exact polarizability:  46.996   0.891  45.494   0.000   0.000  27.011
 Approx polarizability:  44.271  -0.063  45.727   0.000   0.000  27.353

                      1                      2                      3
                     A"                     A"                     A"
 Frequencies --    610.6141               690.3851               724.4836
 Red. masses --      2.2672                 1.8487                 5.0204
 Frc consts  --      0.4981                 0.5192                 1.5526
 IR Inten    --     59.8604                13.2385                13.9061

                      4                      5                      6
                     A"                     A'                     A'
 Frequencies --    809.4551               948.1828               995.2900
 Red. masses --      1.3359                 4.1878                 6.0943
 Frc consts  --      0.5157                 2.2183                 3.5569
 IR Inten    --     26.1814                 2.4794                 2.4662

                      7                      8                      9
                     A'                     A'                     A'
 Frequencies --   1069.0215              1101.6703              1126.7643
 Red. masses --      4.2572                 3.4905                 3.2352
 Frc consts  --      2.8665                 2.4960                 2.4200
 IR Inten    --     31.9216                11.9955                10.2945

                     10                     11                     12
                     A'                     A'                     A'
 Frequencies --   1170.5896              1246.8751              1461.8480
 Red. masses --      2.8571                 3.2035                 2.6526
 Frc consts  --      2.3067                 2.9344                 3.3399
 IR Inten    --      1.1581                 1.1546                16.6743

                     13                     14                     15
                     A'                     A'                     A'
 Frequencies --   1477.7983              3326.9019              3651.9909
 Red. masses --      4.1115                 1.1012                 1.0851
 Frc consts  --      5.2902                 7.1814                 8.5266
 IR Inten    --     14.4043                 3.2890               109.2221

 - Thermochemistry -
 -------------------
 Temperature   298.150 Kelvin.  Pressure   1.00000 Atm.
 Atom     1 has atomic number  6 and mass  12.00000

 Molecular mass:    70.02795 amu.
 Principal axes and moments of inertia in atomic units:
                           1         2         3
     Eigenvalues --   174.61004 178.39258 353.00262
           X           -0.66248   0.74908   0.00000
           Y            0.74908   0.66248   0.00000
           Z            0.00000   0.00000   1.00000
 This molecule is an asymmetric top.
 Rotational symmetry number  1.
 Rotational temperatures (Kelvin)      0.49604     0.48552     0.24536
 Rotational constants (GHZ):          10.33584    10.11668     5.11254
 Zero-point vibrational energy     122090.1 (Joules/Mol)
                                   29.18023 (Kcal/Mol)
 Warning -- explicit consideration of   1 degrees of freedom as
           vibrations may cause significant error
 Vibrational temperatures:    878.54   993.31  1042.37  1164.62  1364.22
          (Kelvin)           1432.00  1538.08  1585.06  1621.16  1684.22
                             1793.97  2103.27  2126.22  4786.66  5254.39

 Zero-point correction=                           0.046502 (Hartree/Particle)
 Thermal correction to Energy=                    0.049986
 Thermal correction to Enthalpy=                  0.050930
 Thermal correction to Gibbs Free Energy=         0.020378
 Sum of electronic and zero-point Energies=           -257.569044
 Sum of electronic and thermal Energies=              -257.565560
 Sum of electronic and thermal Enthalpies=            -257.564616
 Sum of electronic and thermal Free Energies=         -257.595168

                     E (Thermal)             CV                S
                      KCal/Mol        Cal/Mol-Kelvin    Cal/Mol-Kelvin
 Total                   31.366             11.469             64.302
 Electronic               0.000              0.000              0.000
 Translational            0.889              2.981             38.656
 Rotational               0.889              2.981             23.912
 Vibrational             29.589              5.507              1.734
 Vibration     1          0.970              1.009              0.432

 Optimization completed.
    -- Stationary point found.
 Normal termination of Gaussian 09 at Mon Dec 16 15:45:03 2013.
