 Gaussian 09, Revision D.01,
 Gaussian 09:  EM64L-G09RevD.01 24-Apr-2013

 ---------------------------------------
 #MP2/CEP-31G* opt=z-matrix freq density
 ---------------------------------------

 ------------------------------------------------------------------
 1H-tetrazole CH2N4 casno=288948 state=1 config=1 method=3 basis=12
 ------------------------------------------------------------------
 Symbolic Z-matrix:
 Charge =  0 Multiplicity = 1

 SCF Done:  E(RHF) =  -45.3005635911     A.U. after   15 cycles
 E2 =    -0.7337456774D+00 EUMP2 =    -0.46034309268403D+02
 SCF Done:  E(RHF) =  -45.2942861831     A.U. after   15 cycles
 E2 =    -0.7546008403D+00 EUMP2 =    -0.46048887023408D+02
 SCF Done:  E(RHF) =  -45.2909155263     A.U. after   13 cycles
 E2 =    -0.7584568312D+00 EUMP2 =    -0.46049372357565D+02
 SCF Done:  E(RHF) =  -45.2901525923     A.U. after   13 cycles
 E2 =    -0.7582935356D+00 EUMP2 =    -0.46048446127908D+02
 SCF Done:  E(RHF) =  -45.2902270136     A.U. after   12 cycles
 E2 =    -0.7592843381D+00 EUMP2 =    -0.46049511351697D+02
 SCF Done:  E(RHF) =  -45.2899079445     A.U. after   12 cycles
 E2 =    -0.7595240128D+00 EUMP2 =    -0.46049431957325D+02
 SCF Done:  E(RHF) =  -45.2902339023     A.U. after   11 cycles
 E2 =    -0.7592845230D+00 EUMP2 =    -0.46049518425294D+02
 SCF Done:  E(RHF) =  -45.2900879942     A.U. after   13 cycles
 E2 =    -0.7593716807D+00 EUMP2 =    -0.46049459674951D+02
 SCF Done:  E(RHF) =  -45.2902547868     A.U. after   10 cycles
 E2 =    -0.7592645020D+00 EUMP2 =    -0.46049519288763D+02
 SCF Done:  E(RHF) =  -45.2902776134     A.U. after   10 cycles
 E2 =    -0.7592416052D+00 EUMP2 =    -0.46049519218632D+02
 SCF Done:  E(RHF) =  -45.2902879687     A.U. after    9 cycles
 E2 =    -0.7592314876D+00 EUMP2 =    -0.46049519456291D+02
 SCF Done:  E(RHF) =  -45.2903011736     A.U. after    8 cycles
 E2 =    -0.7592182780D+00 EUMP2 =    -0.46049519451587D+02
 SCF Done:  E(RHF) =  -45.2903010207     A.U. after    8 cycles
 E2 =    -0.7592184677D+00 EUMP2 =    -0.46049519488423D+02
 SCF Done:  E(RHF) =  -45.2903031943     A.U. after    9 cycles
 E2 =    -0.7592155881D+00 EUMP2 =    -0.46049518782451D+02
 SCF Done:  E(RHF) =  -45.2903024555     A.U. after    7 cycles
 E2 =    -0.7592170352D+00 EUMP2 =    -0.46049519490709D+02
 Optimization completed.
    -- Stationary point found.
 Normal termination of Gaussian 09 at Mon Nov 25 16:57:09 2013.

 ----------------------------------------------------------------------
 #N Geom=AllCheck Guess=TCheck SCRF=Check GenChk RMP2(FC)/CEP-31G(d) Fr
 eq
 ----------------------------------------------------------------------

 Structure from the checkpoint file:  "/tmp/rdj3/g09-26531/Gau-28795.chk"
 ------------------------------------------------------------------
 1H-tetrazole CH2N4 casno=288948 state=1 config=1 method=3 basis=12
 ------------------------------------------------------------------
 Charge =  0 Multiplicity = 1

                         Standard orientation:
 ---------------------------------------------------------------------
 Center     Atomic      Atomic             Coordinates (Angstroms)
 Number     Number       Type             X           Y           Z
 ---------------------------------------------------------------------
      1          6           0        1.081895    0.242330    0.000000
      2          7           0        0.000000    1.068501    0.000000
      3          7           0       -1.140950    0.322431    0.000000
      4          7           0       -0.728091   -0.952607    0.000000
      5          7           0        0.648289   -1.026185    0.000000
      6          1           0        2.118731    0.573433    0.000000
      7          1           0       -0.064831    2.087610    0.000000
 ---------------------------------------------------------------------

 SCF Done:  E(RHF) =  -45.2903024555     A.U. after    1 cycles
 E2 =    -0.7592170374D+00 EUMP2 =    -0.46049519492899D+02
 E2 =    -0.7592170374D+00 EUMP2 =    -0.46049519492899D+02

 The electronic state is 1-A'.
 Alpha  occ. eigenvalues --   -1.48086  -1.25911  -1.18739  -0.90976  -0.88642
 Alpha  occ. eigenvalues --   -0.79209  -0.67100  -0.66385  -0.56321  -0.48454
 Alpha  occ. eigenvalues --   -0.47126  -0.45287  -0.40983
 Alpha virt. eigenvalues --    0.11729   0.16355   0.20369   0.26043   0.27322
 Alpha virt. eigenvalues --    0.32971   0.37938   0.40188   0.45058   0.48463
 Alpha virt. eigenvalues --    0.52604   0.65450   0.66884   0.68383   0.69984

 Mulliken charges:
               1
     1  C   -0.539998
     2  N   -0.051301
     3  N   -0.056507
     4  N   -0.116081
     5  N    0.088570
     6  H    0.269571
     7  H    0.405746
 Sum of Mulliken charges =   0.00000

 Dipole moment (field-independent basis, Debye):
    X=              2.6495    Y=              5.1108    Z=              0.0000  Tot=              5.7568
 Quadrupole moment (field-independent basis, Debye-Ang):
   XX=            -29.5704   YY=            -26.6870   ZZ=            -28.9133
   XY=              1.8676   XZ=              0.0000   YZ=              0.0000

  Exact polarizability:  40.273   0.913  39.093   0.000   0.000  17.712
 Approx polarizability:  40.389  -0.405  42.351   0.000   0.000  18.347

                      1                      2                      3
                     A"                     A"                     A"
 Frequencies --    614.9581               689.3632               723.5112
 Red. masses --      2.7739                 1.8938                 3.5394
 Frc consts  --      0.6181                 0.5302                 1.0916
 IR Inten    --     64.8601                18.9861                25.1895

                      4                      5                      6
                     A"                     A'                     A'
 Frequencies --    819.5478               942.4870               984.2094
 Red. masses --      1.3170                 4.5814                 6.1940
 Frc consts  --      0.5212                 2.3977                 3.5350
 IR Inten    --     42.0883                 3.4516                 3.3120

                      7                      8                      9
                     A'                     A'                     A'
 Frequencies --   1084.4032              1103.2181              1138.4488
 Red. masses --      2.8822                 6.3133                 2.1709
 Frc consts  --      1.9969                 4.5272                 1.6577
 IR Inten    --     32.9267                 7.3510                19.8019

                     10                     11                     12
                     A'                     A'                     A'
 Frequencies --   1190.0503              1255.4492              1462.9010
 Red. masses --      3.8054                 3.2920                 2.4339
 Frc consts  --      3.1753                 3.0571                 3.0689
 IR Inten    --      3.7662                 0.9126                25.2354

                     13                     14                     15
                     A'                     A'                     A'
 Frequencies --   1479.4757              3322.2577              3660.8124
 Red. masses --      5.1798                 1.1012                 1.0852
 Frc consts  --      6.6800                 7.1612                 8.5690
 IR Inten    --      9.9584                 0.4866               114.8272

 - Thermochemistry -
 -------------------
 Temperature   298.150 Kelvin.  Pressure   1.00000 Atm.
 Atom     1 has atomic number  6 and mass  12.00000

 Molecular mass:    70.02795 amu.
 Principal axes and moments of inertia in atomic units:
                           1         2         3
     Eigenvalues --   176.89104 181.20437 358.09541
           X           -0.65454   0.75603   0.00000
           Y            0.75603   0.65454   0.00000
           Z            0.00000   0.00000   1.00000
 This molecule is an asymmetric top.
 Rotational symmetry number  1.
 Rotational temperatures (Kelvin)      0.48965     0.47799     0.24187
 Rotational constants (GHZ):          10.20256     9.95970     5.03983
 Zero-point vibrational energy     122444.3 (Joules/Mol)
                                   29.26490 (Kcal/Mol)
 Warning -- explicit consideration of   1 degrees of freedom as
           vibrations may cause significant error
 Vibrational temperatures:    884.79   991.84  1040.97  1179.15  1356.03
          (Kelvin)           1416.06  1560.21  1587.28  1637.97  1712.21
                             1806.31  2104.79  2128.63  4779.98  5267.09

 Zero-point correction=                           0.046637 (Hartree/Particle)
 Thermal correction to Energy=                    0.050114
 Thermal correction to Enthalpy=                  0.051058
 Thermal correction to Gibbs Free Energy=         0.020494
 Sum of electronic and zero-point Energies=            -46.002883
 Sum of electronic and thermal Energies=               -45.999405
 Sum of electronic and thermal Enthalpies=             -45.998461
 Sum of electronic and thermal Free Energies=          -46.029025

                     E (Thermal)             CV                S
                      KCal/Mol        Cal/Mol-Kelvin    Cal/Mol-Kelvin
 Total                   31.447             11.423             64.327
 Electronic               0.000              0.000              0.000
 Translational            0.889              2.981             38.656
 Rotational               0.889              2.981             23.955
 Vibrational             29.670              5.461              1.716
 Vibration     1          0.974              1.000              0.425

 Optimization completed.
    -- Stationary point found.
 Normal termination of Gaussian 09 at Mon Nov 25 16:57:33 2013.
