 Gaussian 09, Revision D.01,
 Gaussian 09:  EM64L-G09RevD.01 24-Apr-2013

 --------------------------------------
 #MP2/CEP-31G opt=z-matrix freq density
 --------------------------------------

 ------------------------------------------------------------------
 1H-tetrazole CH2N4 casno=288948 state=1 config=1 method=3 basis=11
 ------------------------------------------------------------------
 Symbolic Z-matrix:
 Charge =  0 Multiplicity = 1

 SCF Done:  E(RHF) =  -45.1354850266     A.U. after   14 cycles
 E2 =    -0.4566039349D+00 EUMP2 =    -0.45592088961516D+02
 SCF Done:  E(RHF) =  -45.1373102297     A.U. after   15 cycles
 E2 =    -0.4975159297D+00 EUMP2 =    -0.45634826159441D+02
 SCF Done:  E(RHF) =  -45.1197874410     A.U. after   16 cycles
 E2 =    -0.5188921673D+00 EUMP2 =    -0.45638679608340D+02
 SCF Done:  E(RHF) =  -45.1214817614     A.U. after   14 cycles
 E2 =    -0.5188066818D+00 EUMP2 =    -0.45640288443212D+02
 SCF Done:  E(RHF) =  -45.1197261645     A.U. after   13 cycles
 E2 =    -0.5206665809D+00 EUMP2 =    -0.45640392745381D+02
 SCF Done:  E(RHF) =  -45.1193063337     A.U. after   13 cycles
 E2 =    -0.5211513106D+00 EUMP2 =    -0.45640457644324D+02
 SCF Done:  E(RHF) =  -45.1192975948     A.U. after   15 cycles
 E2 =    -0.5199793384D+00 EUMP2 =    -0.45639276933247D+02
 SCF Done:  E(RHF) =  -45.1216626300     A.U. after   15 cycles
 E2 =    -0.5177885990D+00 EUMP2 =    -0.45639451228991D+02
 SCF Done:  E(RHF) =  -45.1178402394     A.U. after   16 cycles
 E2 =    -0.5176820967D+00 EUMP2 =    -0.45635522336068D+02
 SCF Done:  E(RHF) =  -45.1170813577     A.U. after   16 cycles
 E2 =    -0.5225016070D+00 EUMP2 =    -0.45639582964683D+02
 E2 =    -0.5215636635D+00 EUMP2 =    -0.45640467705204D+02
 SCF Done:  E(RHF) =  -45.1197325342     A.U. after   13 cycles
 E2 =    -0.5205880903D+00 EUMP2 =    -0.45640320624491D+02
 SCF Done:  E(RHF) =  -45.1182621986     A.U. after   12 cycles
 E2 =    -0.5222254590D+00 EUMP2 =    -0.45640487657585D+02
 SCF Done:  E(RHF) =  -45.1211422344     A.U. after   14 cycles
 E2 =    -0.5187061342D+00 EUMP2 =    -0.45639848368575D+02
 SCF Done:  E(RHF) =  -45.1184424710     A.U. after   12 cycles
 E2 =    -0.5220523157D+00 EUMP2 =    -0.45640494786708D+02
 SCF Done:  E(RHF) =  -45.1177836401     A.U. after   13 cycles
 E2 =    -0.5226803892D+00 EUMP2 =    -0.45640464029324D+02
 SCF Done:  E(RHF) =  -45.1184614006     A.U. after   12 cycles
 E2 =    -0.5220380868D+00 EUMP2 =    -0.45640499487336D+02
 SCF Done:  E(RHF) =  -45.1194327850     A.U. after   13 cycles
 E2 =    -0.5210282577D+00 EUMP2 =    -0.45640461042683D+02
 SCF Done:  E(RHF) =  -45.1186281930     A.U. after   11 cycles
 E2 =    -0.5218725699D+00 EUMP2 =    -0.45640500762944D+02
 SCF Done:  E(RHF) =  -45.1186700269     A.U. after    9 cycles
 E2 =    -0.5218307897D+00 EUMP2 =    -0.45640500816590D+02
 Optimization completed.
    -- Stationary point found.
 Normal termination of Gaussian 09 at Mon Nov 25 16:56:14 2013.

 ---------------------------------------------------------------------
 #N Geom=AllCheck Guess=TCheck SCRF=Check GenChk RMP2(FC)/CEP-31G Freq
 ---------------------------------------------------------------------

 Structure from the checkpoint file:  "/tmp/rdj3/g09-26531/Gau-26587.chk"
 ------------------------------------------------------------------
 1H-tetrazole CH2N4 casno=288948 state=1 config=1 method=3 basis=11
 ------------------------------------------------------------------
 Charge =  0 Multiplicity = 1

                         Standard orientation:
 ---------------------------------------------------------------------
 Center     Atomic      Atomic             Coordinates (Angstroms)
 Number     Number       Type             X           Y           Z
 ---------------------------------------------------------------------
      1          6           0        1.115335    0.264269    0.000000
      2          7           0        0.000000    1.103881    0.000000
      3          7           0       -1.194283    0.331526    0.000000
      4          7           0       -0.755828   -1.001848    0.000000
      5          7           0        0.694582   -1.048863    0.000000
      6          1           0        2.151715    0.598839    0.000000
      7          1           0       -0.055017    2.122674    0.000000
 ---------------------------------------------------------------------

 SCF Done:  E(RHF) =  -45.1186700269     A.U. after    1 cycles
 E2 =    -0.5218307919D+00 EUMP2 =    -0.45640500818836D+02
 E2 =    -0.5218307919D+00 EUMP2 =    -0.45640500818836D+02

 The electronic state is 1-A'.
 Alpha  occ. eigenvalues --   -1.47147  -1.26012  -1.20114  -0.91723  -0.88763
 Alpha  occ. eigenvalues --   -0.79476  -0.66573  -0.65440  -0.55979  -0.49549
 Alpha  occ. eigenvalues --   -0.47818  -0.45616  -0.42084
 Alpha virt. eigenvalues --    0.07716   0.12623   0.19112   0.24240   0.26356
 Alpha virt. eigenvalues --    0.28439   0.33745   0.38787   0.44362   0.46614
 Alpha virt. eigenvalues --    0.48103   0.66790   0.66857   0.67876   0.69857

 Mulliken charges:
               1
     1  C   -0.346893
     2  N   -0.231589
     3  N    0.010557
     4  N   -0.124921
     5  N    0.044806
     6  H    0.262512
     7  H    0.385529
 Sum of Mulliken charges =   0.00000

 Dipole moment (field-independent basis, Debye):
    X=              2.8592    Y=              5.5023    Z=              0.0000  Tot=              6.2008
 Quadrupole moment (field-independent basis, Debye-Ang):
   XX=            -31.2030   YY=            -28.5576   ZZ=            -29.7732
   XY=              2.2388   XZ=              0.0000   YZ=              0.0000

  Exact polarizability:  41.860   1.452  40.691   0.000   0.000  16.605
 Approx polarizability:  43.255  -0.905  46.534   0.000   0.000  13.590

                      1                      2                      3
                     A"                     A"                     A"
 Frequencies --    619.5419               665.9824               717.8770
 Red. masses --      5.8988                 8.3186                 1.1306
 Frc consts  --      1.3340                 2.1738                 0.3433
 IR Inten    --     21.5140                 0.5812                99.7689

                      4                      5                      6
                     A"                     A'                     A'
 Frequencies --    769.1316               833.2295               898.3997
 Red. masses --      1.3104                 7.1525                 8.0364
 Frc consts  --      0.4567                 2.9257                 3.8216
 IR Inten    --     76.7649                 5.0605                16.2482

                      7                      8                      9
                     A'                     A'                     A'
 Frequencies --    962.9390               964.6532              1008.6414
 Red. masses --      8.2338                 7.3139                 5.5482
 Frc consts  --      4.4983                 4.0100                 3.3256
 IR Inten    --      9.6285                 9.0587                 7.2118

                     10                     11                     12
                     A'                     A'                     A'
 Frequencies --   1127.5981              1161.9861              1369.4460
 Red. masses --      1.7815                 2.7290                 3.7277
 Frc consts  --      1.3346                 2.1709                 4.1189
 IR Inten    --     12.2046                 5.9215                 7.4945

                     13                     14                     15
                     A'                     A'                     A'
 Frequencies --   1433.9064              3308.4379              3685.0886
 Red. masses --      1.6098                 1.1009                 1.0859
 Frc consts  --      1.9501                 7.0997                 8.6881
 IR Inten    --     43.6672                 0.1502               113.4209

 - Thermochemistry -
 -------------------
 Temperature   298.150 Kelvin.  Pressure   1.00000 Atm.
 Atom     1 has atomic number  6 and mass  12.00000

 Molecular mass:    70.02795 amu.
 Principal axes and moments of inertia in atomic units:
                           1         2         3
     Eigenvalues --   190.70325 194.83405 385.53731
           X            0.86250   0.50606   0.00000
           Y           -0.50606   0.86250   0.00000
           Z            0.00000   0.00000   1.00000
 This molecule is an asymmetric top.
 Rotational symmetry number  1.
 Rotational temperatures (Kelvin)      0.45418     0.44455     0.22466
 Rotational constants (GHZ):           9.46361     9.26297     4.68111
 Zero-point vibrational energy     116796.6 (Joules/Mol)
                                   27.91505 (Kcal/Mol)
 Warning -- explicit consideration of   1 degrees of freedom as
           vibrations may cause significant error
 Vibrational temperatures:    891.38   958.20  1032.86  1106.61  1198.83
          (Kelvin)           1292.60  1385.45  1387.92  1451.21  1622.36
                             1671.84  1970.32  2063.07  4760.10  5302.01

 Zero-point correction=                           0.044485 (Hartree/Particle)
 Thermal correction to Energy=                    0.048089
 Thermal correction to Enthalpy=                  0.049033
 Thermal correction to Gibbs Free Energy=         0.018204
 Sum of electronic and zero-point Energies=            -45.596015
 Sum of electronic and thermal Energies=               -45.592412
 Sum of electronic and thermal Enthalpies=             -45.591468
 Sum of electronic and thermal Free Energies=          -45.622297

                     E (Thermal)             CV                S
                      KCal/Mol        Cal/Mol-Kelvin    Cal/Mol-Kelvin
 Total                   30.176             12.351             64.886
 Electronic               0.000              0.000              0.000
 Translational            0.889              2.981             38.656
 Rotational               0.889              2.981             24.175
 Vibrational             28.399              6.389              2.055
 Vibration     1          0.980              0.991              0.417

 Optimization completed.
    -- Stationary point found.
 Normal termination of Gaussian 09 at Mon Nov 25 16:56:21 2013.
