 Gaussian 09, Revision D.01,
 Gaussian 09:  EM64L-G09RevD.01 24-Apr-2013

 ----------------------------------
 #MP2/6-31G(2df,p) opt freq density
 ----------------------------------

 ------------------------------------------------------------------
 1H-tetrazole CH2N4 casno=288948 state=1 config=1 method=3 basis=19
 ------------------------------------------------------------------
 Symbolic Z-matrix:
 Charge =  0 Multiplicity = 1

 SCF Done:  E(RHF) =  -256.781975392     A.U. after   14 cycles
 E2 =    -0.9064718141D+00 EUMP2 =    -0.25768844720573D+03
 SCF Done:  E(RHF) =  -256.776635360     A.U. after   13 cycles
 E2 =    -0.9172471650D+00 EUMP2 =    -0.25769388252515D+03
 SCF Done:  E(RHF) =  -256.774267646     A.U. after   12 cycles
 E2 =    -0.9199789040D+00 EUMP2 =    -0.25769424654988D+03
 SCF Done:  E(RHF) =  -256.773491682     A.U. after   11 cycles
 E2 =    -0.9208282542D+00 EUMP2 =    -0.25769431993593D+03
 SCF Done:  E(RHF) =  -256.773606154     A.U. after   10 cycles
 E2 =    -0.9207357347D+00 EUMP2 =    -0.25769434188838D+03
 SCF Done:  E(RHF) =  -256.773792247     A.U. after   10 cycles
 E2 =    -0.9205540393D+00 EUMP2 =    -0.25769434628630D+03
 Optimization completed.
    -- Stationary point found.
 Normal termination of Gaussian 09 at Mon Dec 16 15:47:04 2013.

 ----------------------------------------------------------------------
 #N Geom=AllCheck Guess=TCheck SCRF=Check GenChk RMP2(FC)/6-31G(2df,p)
 Freq
 ----------------------------------------------------------------------

 Structure from the checkpoint file:  "/tmp/rdj3/g09-14118/Gau-15956.chk"
 ------------------------------------------------------------------
 1H-tetrazole CH2N4 casno=288948 state=1 config=1 method=3 basis=19
 ------------------------------------------------------------------
 Charge =  0 Multiplicity = 1

                         Standard orientation:
 ---------------------------------------------------------------------
 Center     Atomic      Atomic             Coordinates (Angstroms)
 Number     Number       Type             X           Y           Z
 ---------------------------------------------------------------------
      1          6           0        1.067981    0.237619    0.000000
      2          7           0        0.000000    1.052010    0.000000
      3          7           0       -1.121040    0.318267    0.000000
      4          7           0       -0.719295   -0.936596    0.000000
      5          7           0        0.634607   -1.012561    0.000000
      6          1           0        2.091953    0.567828    0.000000
      7          1           0       -0.059743    2.058617    0.000000
 ---------------------------------------------------------------------

 SCF Done:  E(RHF) =  -256.773792247     A.U. after    1 cycles
 E2 =    -0.9205540322D+00 EUMP2 =    -0.25769434627912D+03
 E2 =    -0.9205540322D+00 EUMP2 =    -0.25769434627912D+03

 The electronic state is 1-A'.
 Alpha  occ. eigenvalues --  -15.68607 -15.66271 -15.64815 -15.60647 -11.33906
 Alpha  occ. eigenvalues --   -1.48278  -1.25381  -1.17970  -0.90425  -0.88382
 Alpha  occ. eigenvalues --   -0.79227  -0.66992  -0.66989  -0.56119  -0.47931
 Alpha  occ. eigenvalues --   -0.46482  -0.45139  -0.40660
 Alpha virt. eigenvalues --    0.13913   0.18755   0.19732   0.25351   0.35300
 Alpha virt. eigenvalues --    0.38325   0.43048   0.44999   0.58496   0.64131
 Alpha virt. eigenvalues --    0.65767   0.67437   0.72110   0.74710   0.76253

 Mulliken charges:
               1
     1  C    0.008440
     2  N   -0.210744
     3  N   -0.063711
     4  N   -0.091915
     5  N   -0.175343
     6  H    0.198265
     7  H    0.335008
 Sum of Mulliken charges =   0.00000

 Dipole moment (field-independent basis, Debye):
    X=              2.5089    Y=              4.7868    Z=              0.0000  Tot=              5.4044
 Quadrupole moment (field-independent basis, Debye-Ang):
   XX=            -28.8570   YY=            -25.9786   ZZ=            -28.3916
   XY=              1.7249   XZ=              0.0000   YZ=              0.0000

  Exact polarizability:  38.867   1.245  37.354   0.000   0.000  18.311
 Approx polarizability:  39.867  -0.043  41.513   0.000   0.000  21.042

                      1                      2                      3
                     A"                     A"                     A"
 Frequencies --    629.2510               702.8771               743.3627
 Red. masses --      2.2746                 1.8632                 5.0176
 Frc consts  --      0.5306                 0.5423                 1.6336
 IR Inten    --     60.7559                14.9546                15.4180

                      4                      5                      6
                     A"                     A'                     A'
 Frequencies --    842.1482               969.5402              1010.2305
 Red. masses --      1.3262                 4.4306                 5.7327
 Frc consts  --      0.5541                 2.4538                 3.4471
 IR Inten    --     18.2629                 2.7141                 5.1552

                      7                      8                      9
                     A'                     A'                     A'
 Frequencies --   1097.9447              1127.0085              1153.6425
 Red. masses --      3.4686                 4.1448                 2.6120
 Frc consts  --      2.4636                 3.1017                 2.0482
 IR Inten    --     31.9125                10.6004                12.3829

                     10                     11                     12
                     A'                     A'                     A'
 Frequencies --   1200.5408              1269.9208              1476.3055
 Red. masses --      3.6497                 3.1863                 2.4542
 Frc consts  --      3.0993                 3.0275                 3.1515
 IR Inten    --      1.2346                 1.4482                24.8280

                     13                     14                     15
                     A'                     A'                     A'
 Frequencies --   1492.6132              3346.1963              3695.4100
 Red. masses --      4.8397                 1.1005                 1.0844
 Frc consts  --      6.3528                 7.2600                 8.7248
 IR Inten    --      6.8423                 3.8877               120.2664

 - Thermochemistry -
 -------------------
 Temperature   298.150 Kelvin.  Pressure   1.00000 Atm.
 Atom     1 has atomic number  6 and mass  12.00000

 Molecular mass:    70.02795 amu.
 Principal axes and moments of inertia in atomic units:
                           1         2         3
     Eigenvalues --   171.77419 175.54234 347.31653
           X           -0.63365   0.77362   0.00000
           Y            0.77362   0.63365   0.00000
           Z            0.00000   0.00000   1.00000
 This molecule is an asymmetric top.
 Rotational symmetry number  1.
 Rotational temperatures (Kelvin)      0.50423     0.49341     0.24938
 Rotational constants (GHZ):          10.50648    10.28095     5.19624
 Zero-point vibrational energy     124154.4 (Joules/Mol)
                                   29.67361 (Kcal/Mol)
 Vibrational temperatures:    905.35  1011.28  1069.53  1211.66  1394.95
          (Kelvin)           1453.49  1579.70  1621.51  1659.83  1727.31
                             1827.13  2124.07  2147.53  4814.42  5316.86

 Zero-point correction=                           0.047288 (Hartree/Particle)
 Thermal correction to Energy=                    0.050724
 Thermal correction to Enthalpy=                  0.051669
 Thermal correction to Gibbs Free Energy=         0.021203
 Sum of electronic and zero-point Energies=           -257.647058
 Sum of electronic and thermal Energies=              -257.643622
 Sum of electronic and thermal Enthalpies=            -257.642678
 Sum of electronic and thermal Free Energies=         -257.673143

                     E (Thermal)             CV                S
                      KCal/Mol        Cal/Mol-Kelvin    Cal/Mol-Kelvin
 Total                   31.830             11.169             64.120
 Electronic               0.000              0.000              0.000
 Translational            0.889              2.981             38.656
 Rotational               0.889              2.981             23.864
 Vibrational             30.053              5.207              1.601

 Optimization completed.
    -- Stationary point found.
 Normal termination of Gaussian 09 at Mon Dec 16 15:52:12 2013.
