 Gaussian 09, Revision D.01,
 Gaussian 09:  EM64L-G09RevD.01 24-Apr-2013

 ---------------------------------------
 #MP2/CEP-121G opt=z-matrix freq density
 ---------------------------------------

 ------------------------------------------------------------------
 1H-tetrazole CH2N4 casno=288948 state=1 config=1 method=3 basis=13
 ------------------------------------------------------------------
 Symbolic Z-matrix:
 Charge =  0 Multiplicity = 1

 SCF Done:  E(RHF) =  -45.1454105368     A.U. after   14 cycles
 E2 =    -0.5151695726D+00 EUMP2 =    -0.45660580109377D+02
 SCF Done:  E(RHF) =  -45.1458107317     A.U. after   16 cycles
 E2 =    -0.5521103113D+00 EUMP2 =    -0.45697921042962D+02
 SCF Done:  E(RHF) =  -45.1310534097     A.U. after   15 cycles
 E2 =    -0.5699081220D+00 EUMP2 =    -0.45700961531670D+02
 SCF Done:  E(RHF) =  -45.1319965732     A.U. after   14 cycles
 E2 =    -0.5700136129D+00 EUMP2 =    -0.45702010186129D+02
 SCF Done:  E(RHF) =  -45.1283954122     A.U. after   15 cycles
 E2 =    -0.5724987700D+00 EUMP2 =    -0.45700894182109D+02
 SCF Done:  E(RHF) =  -45.1296460764     A.U. after   13 cycles
 E2 =    -0.5724521777D+00 EUMP2 =    -0.45702098254128D+02
 SCF Done:  E(RHF) =  -45.1296722940     A.U. after   13 cycles
 E2 =    -0.5724970701D+00 EUMP2 =    -0.45702169364057D+02
 SCF Done:  E(RHF) =  -45.1291836990     A.U. after   13 cycles
 E2 =    -0.5729453079D+00 EUMP2 =    -0.45702129006943D+02
 SCF Done:  E(RHF) =  -45.1295910774     A.U. after   12 cycles
 E2 =    -0.5726078800D+00 EUMP2 =    -0.45702198957344D+02
 SCF Done:  E(RHF) =  -45.1291278499     A.U. after   13 cycles
 E2 =    -0.5730521728D+00 EUMP2 =    -0.45702180022729D+02
 SCF Done:  E(RHF) =  -45.1295003523     A.U. after   12 cycles
 E2 =    -0.5727047429D+00 EUMP2 =    -0.45702205095190D+02
 SCF Done:  E(RHF) =  -45.1296756971     A.U. after   11 cycles
 E2 =    -0.5725308729D+00 EUMP2 =    -0.45702206570017D+02
 SCF Done:  E(RHF) =  -45.1295252602     A.U. after   12 cycles
 E2 =    -0.5726819828D+00 EUMP2 =    -0.45702207243028D+02
 SCF Done:  E(RHF) =  -45.1295569525     A.U. after   10 cycles
 E2 =    -0.5726509729D+00 EUMP2 =    -0.45702207925317D+02
 SCF Done:  E(RHF) =  -45.1297698879     A.U. after   12 cycles
 E2 =    -0.5724365504D+00 EUMP2 =    -0.45702206438309D+02
 SCF Done:  E(RHF) =  -45.1295841932     A.U. after   10 cycles
 E2 =    -0.5726238893D+00 EUMP2 =    -0.45702208082525D+02
 Optimization completed.
    -- Stationary point found.
 Normal termination of Gaussian 09 at Mon Nov 25 16:58:07 2013.

 ----------------------------------------------------------------------
 #N Geom=AllCheck Guess=TCheck SCRF=Check GenChk RMP2(FC)/CEP-121G Freq
 ----------------------------------------------------------------------

 Structure from the checkpoint file:  "/tmp/rdj3/g09-26531/Gau-30514.chk"
 ------------------------------------------------------------------
 1H-tetrazole CH2N4 casno=288948 state=1 config=1 method=3 basis=13
 ------------------------------------------------------------------
 Charge =  0 Multiplicity = 1

                         Standard orientation:
 ---------------------------------------------------------------------
 Center     Atomic      Atomic             Coordinates (Angstroms)
 Number     Number       Type             X           Y           Z
 ---------------------------------------------------------------------
      1          6           0        1.108898    0.265840    0.000000
      2          7           0        0.000000    1.094717    0.000000
      3          7           0       -1.190420    0.328875    0.000000
      4          7           0       -0.752435   -0.999571    0.000000
      5          7           0        0.695714   -1.039431    0.000000
      6          1           0        2.137826    0.604282    0.000000
      7          1           0       -0.061221    2.108554    0.000000
 ---------------------------------------------------------------------

 SCF Done:  E(RHF) =  -45.1295841932     A.U. after    1 cycles
 E2 =    -0.5726238880D+00 EUMP2 =    -0.45702208081185D+02
 E2 =    -0.5726238880D+00 EUMP2 =    -0.45702208081185D+02

 The electronic state is 1-A'.
 Alpha  occ. eigenvalues --   -1.47634  -1.26125  -1.20384  -0.91775  -0.89064
 Alpha  occ. eigenvalues --   -0.79859  -0.66680  -0.65752  -0.56104  -0.49631
 Alpha  occ. eigenvalues --   -0.47818  -0.45630  -0.42189
 Alpha virt. eigenvalues --    0.08059   0.11220   0.12952   0.15094   0.24806
 Alpha virt. eigenvalues --    0.27680   0.28917   0.34082   0.43428   0.45075
 Alpha virt. eigenvalues --    0.50532   0.52642   0.60913   0.63038   0.65707

 Mulliken charges:
               1
     1  C   -0.109988
     2  N   -0.343748
     3  N    0.032022
     4  N   -0.111423
     5  N   -0.043744
     6  H    0.213595
     7  H    0.363287
 Sum of Mulliken charges =   0.00000

 Dipole moment (field-independent basis, Debye):
    X=              2.7457    Y=              5.4031    Z=              0.0000  Tot=              6.0607
 Quadrupole moment (field-independent basis, Debye-Ang):
   XX=            -31.0641   YY=            -28.4227   ZZ=            -29.7909
   XY=              2.2166   XZ=              0.0000   YZ=              0.0000

  Exact polarizability:  43.228   1.846  41.288   0.000   0.000  19.313
 Approx polarizability:  43.605  -0.602  46.523   0.000   0.000  16.715

                      1                      2                      3
                     A"                     A"                     A"
 Frequencies --    619.5819               658.9183               713.2265
 Red. masses --      6.7009                 8.3673                 1.1691
 Frc consts  --      1.5156                 2.1404                 0.3504
 IR Inten    --     12.8272                 0.0003                17.9462

                      4                      5                      6
                     A"                     A'                     A'
 Frequencies --    749.3531               816.3596               884.5720
 Red. masses --      1.2291                 7.9978                 7.9822
 Frc consts  --      0.4066                 3.1404                 3.6799
 IR Inten    --    148.4198                 7.6602                14.5470

                      7                      8                      9
                     A'                     A'                     A'
 Frequencies --    963.2911               972.4646              1005.8853
 Red. masses --      6.4944                 8.1045                 6.1542
 Frc consts  --      3.5506                 4.5157                 3.6688
 IR Inten    --     12.9432                 3.2942                 6.0625

                     10                     11                     12
                     A'                     A'                     A'
 Frequencies --   1137.5765              1167.4060              1372.3441
 Red. masses --      1.7592                 2.8153                 3.6273
 Frc consts  --      1.3413                 2.2606                 4.0249
 IR Inten    --     12.0272                 6.4442                 8.9120

                     13                     14                     15
                     A'                     A'                     A'
 Frequencies --   1447.2805              3264.0432              3636.5035
 Red. masses --      1.5828                 1.1027                 1.0856
 Frc consts  --      1.9534                 6.9220                 8.4580
 IR Inten    --     45.2133                 1.3798                95.4886

 - Thermochemistry -
 -------------------
 Temperature   298.150 Kelvin.  Pressure   1.00000 Atm.
 Atom     1 has atomic number  6 and mass  12.00000

 Molecular mass:    70.02795 amu.
 Principal axes and moments of inertia in atomic units:
                           1         2         3
     Eigenvalues --   188.61314 193.00403 381.61717
           X            0.91846   0.39550   0.00000
           Y           -0.39550   0.91846   0.00000
           Z            0.00000   0.00000   1.00000
 This molecule is an asymmetric top.
 Rotational symmetry number  1.
 Rotational temperatures (Kelvin)      0.45921     0.44877     0.22697
 Rotational constants (GHZ):           9.56848     9.35080     4.72919
 Zero-point vibrational energy     116090.4 (Joules/Mol)
                                   27.74628 (Kcal/Mol)
 Warning -- explicit consideration of   1 degrees of freedom as
           vibrations may cause significant error
 Vibrational temperatures:    891.44   948.04  1026.17  1078.15  1174.56
          (Kelvin)           1272.70  1385.96  1399.16  1447.24  1636.72
                             1679.63  1974.49  2082.31  4696.22  5232.11

 Zero-point correction=                           0.044217 (Hartree/Particle)
 Thermal correction to Energy=                    0.047836
 Thermal correction to Enthalpy=                  0.048780
 Thermal correction to Gibbs Free Energy=         0.017943
 Sum of electronic and zero-point Energies=            -45.657992
 Sum of electronic and thermal Energies=               -45.654372
 Sum of electronic and thermal Enthalpies=             -45.653428
 Sum of electronic and thermal Free Energies=          -45.684265

                     E (Thermal)             CV                S
                      KCal/Mol        Cal/Mol-Kelvin    Cal/Mol-Kelvin
 Total                   30.018             12.431             64.903
 Electronic               0.000              0.000              0.000
 Translational            0.889              2.981             38.656
 Rotational               0.889              2.981             24.145
 Vibrational             28.240              6.469              2.102
 Vibration     1          0.980              0.991              0.417

 Normal termination of Gaussian 09 at Mon Nov 25 16:58:23 2013.
