 Gaussian 09, Revision D.01,
 Gaussian 09:  EM64L-G09RevD.01 24-Apr-2013

 ----------------------------------
 #MP2/SDD opt=z-matrix freq density
 ----------------------------------

 ------------------------------------------------------------------
 1H-tetrazole CH2N4 casno=288948 state=1 config=1 method=3 basis=16
 ------------------------------------------------------------------
 Symbolic Z-matrix:
 Charge =  0 Multiplicity = 1

 SCF Done:  E(RHF) =  -256.634652194     A.U. after   15 cycles
 E2 =    -0.5101253499D+00 EUMP2 =    -0.25714477754423D+03
 SCF Done:  E(RHF) =  -256.631122773     A.U. after   15 cycles
 E2 =    -0.5483258704D+00 EUMP2 =    -0.25717944864389D+03
 SCF Done:  E(RHF) =  -256.616826918     A.U. after   14 cycles
 E2 =    -0.5652543749D+00 EUMP2 =    -0.25718208129283D+03
 SCF Done:  E(RHF) =  -256.617447480     A.U. after   14 cycles
 E2 =    -0.5656094888D+00 EUMP2 =    -0.25718305696890D+03
 SCF Done:  E(RHF) =  -256.614123052     A.U. after   14 cycles
 E2 =    -0.5678805953D+00 EUMP2 =    -0.25718200364716D+03
 SCF Done:  E(RHF) =  -256.614968126     A.U. after   13 cycles
 E2 =    -0.5682353123D+00 EUMP2 =    -0.25718320343835D+03
 SCF Done:  E(RHF) =  -256.615158259     A.U. after   13 cycles
 E2 =    -0.5680825850D+00 EUMP2 =    -0.25718324084351D+03
 SCF Done:  E(RHF) =  -256.615177121     A.U. after   12 cycles
 E2 =    -0.5680781989D+00 EUMP2 =    -0.25718325532009D+03
 SCF Done:  E(RHF) =  -256.615013922     A.U. after   12 cycles
 E2 =    -0.5682517131D+00 EUMP2 =    -0.25718326563493D+03
 SCF Done:  E(RHF) =  -256.614951227     A.U. after   11 cycles
 E2 =    -0.5683170265D+00 EUMP2 =    -0.25718326825315D+03
 SCF Done:  E(RHF) =  -256.614916733     A.U. after   11 cycles
 E2 =    -0.5683524035D+00 EUMP2 =    -0.25718326913640D+03
 SCF Done:  E(RHF) =  -256.614939714     A.U. after    9 cycles
 E2 =    -0.5683295146D+00 EUMP2 =    -0.25718326922808D+03
 SCF Done:  E(RHF) =  -256.614967738     A.U. after   10 cycles
 E2 =    -0.5683014448D+00 EUMP2 =    -0.25718326918324D+03
 SCF Done:  E(RHF) =  -256.614958372     A.U. after    8 cycles
 E2 =    -0.5683109051D+00 EUMP2 =    -0.25718326927690D+03
 Optimization completed.
    -- Stationary point found.
 Normal termination of Gaussian 09 at Mon Nov 25 17:01:11 2013.

 -----------------------------------------------------------------
 #N Geom=AllCheck Guess=TCheck SCRF=Check GenChk RMP2(FC)/SDD Freq
 -----------------------------------------------------------------

 Structure from the checkpoint file:  "/tmp/rdj3/g09-26531/Gau-3826.chk"
 ------------------------------------------------------------------
 1H-tetrazole CH2N4 casno=288948 state=1 config=1 method=3 basis=16
 ------------------------------------------------------------------
 Charge =  0 Multiplicity = 1

                         Standard orientation:
 ---------------------------------------------------------------------
 Center     Atomic      Atomic             Coordinates (Angstroms)
 Number     Number       Type             X           Y           Z
 ---------------------------------------------------------------------
      1          6           0        1.107103    0.267018    0.000000
      2          7           0        0.000000    1.093850    0.000000
      3          7           0       -1.187088    0.325354    0.000000
      4          7           0       -0.749417   -0.999785    0.000000
      5          7           0        0.692781   -1.035614    0.000000
      6          1           0        2.135659    0.603820    0.000000
      7          1           0       -0.072210    2.107437    0.000000
 ---------------------------------------------------------------------

 SCF Done:  E(RHF) =  -256.614958372     A.U. after    1 cycles
 E2 =    -0.5683109035D+00 EUMP2 =    -0.25718326927524D+03
 E2 =    -0.5683109035D+00 EUMP2 =    -0.25718326927524D+03

 The electronic state is 1-A'.
 Alpha  occ. eigenvalues --  -15.70552 -15.70043 -15.68889 -15.64596 -11.38142
 Alpha  occ. eigenvalues --   -1.47037  -1.25400  -1.19688  -0.91461  -0.88824
 Alpha  occ. eigenvalues --   -0.79963  -0.66817  -0.65994  -0.56315  -0.49863
 Alpha  occ. eigenvalues --   -0.48034  -0.45856  -0.42296
 Alpha virt. eigenvalues --    0.08036   0.13035   0.19640   0.24753   0.27025
 Alpha virt. eigenvalues --    0.28791   0.34453   0.44850   0.44888   0.47504
 Alpha virt. eigenvalues --    0.54294   0.64773   0.67515   0.67929   0.68625

 Mulliken charges:
               1
     1  C   -0.047331
     2  N   -0.402830
     3  N    0.005767
     4  N   -0.087617
     5  N   -0.124117
     6  H    0.271099
     7  H    0.385029
 Sum of Mulliken charges =   0.00000

 Dipole moment (field-independent basis, Debye):
    X=              2.7231    Y=              5.4109    Z=              0.0000  Tot=              6.0575
 Quadrupole moment (field-independent basis, Debye-Ang):
   XX=            -31.1369   YY=            -28.4334   ZZ=            -29.8452
   XY=              2.1775   XZ=              0.0000   YZ=              0.0000

  Exact polarizability:  41.587   1.703  40.023   0.000   0.000  15.694
 Approx polarizability:  42.420  -0.617  45.410   0.000   0.000  13.109

                      1                      2                      3
                     A"                     A"                     A"
 Frequencies --    638.3874               677.4902               755.9996
 Red. masses --      4.3294                 9.7272                 1.1327
 Frc consts  --      1.0396                 2.6305                 0.3814
 IR Inten    --      9.0823                 0.1900               137.6990

                      4                      5                      6
                     A"                     A'                     A'
 Frequencies --    778.0221               810.2861               869.6694
 Red. masses --      1.3875                 8.2229                 8.3560
 Frc consts  --      0.4948                 3.1809                 3.7236
 IR Inten    --     47.5025                 9.3545                12.3048

                      7                      8                      9
                     A'                     A'                     A'
 Frequencies --    958.4602               978.1769              1002.9947
 Red. masses --      6.2224                 7.9192                 7.7241
 Frc consts  --      3.3679                 4.4644                 4.5782
 IR Inten    --     15.5743                 2.1882                 3.5968

                     10                     11                     12
                     A'                     A'                     A'
 Frequencies --   1147.9688              1172.3401              1374.3318
 Red. masses --      1.7619                 2.7748                 3.5241
 Frc consts  --      1.3680                 2.2469                 3.9217
 IR Inten    --     13.5921                 7.5432                 9.5472

                     13                     14                     15
                     A'                     A'                     A'
 Frequencies --   1444.4836              3326.1531              3670.5245
 Red. masses --      1.5373                 1.1015                 1.0855
 Frc consts  --      1.8899                 7.1796                 8.6165
 IR Inten    --     50.2179                 1.8624               122.9880

 - Thermochemistry -
 -------------------
 Temperature   298.150 Kelvin.  Pressure   1.00000 Atm.
 Atom     1 has atomic number  6 and mass  12.00000

 Molecular mass:    70.02795 amu.
 Principal axes and moments of inertia in atomic units:
                           1         2         3
     Eigenvalues --   188.22073 191.79784 380.01857
           X            0.92705   0.37495   0.00000
           Y           -0.37495   0.92705   0.00000
           Z            0.00000   0.00000   1.00000
 This molecule is an asymmetric top.
 Rotational symmetry number  1.
 Rotational temperatures (Kelvin)      0.46017     0.45159     0.22792
 Rotational constants (GHZ):           9.58843     9.40960     4.74909
 Zero-point vibrational energy     117265.7 (Joules/Mol)
                                   28.02717 (Kcal/Mol)
 Vibrational temperatures:    918.50   974.76  1087.71  1119.40  1165.82
          (Kelvin)           1251.26  1379.01  1407.38  1443.08  1651.67
                             1686.73  1977.35  2078.29  4785.59  5281.06

 Zero-point correction=                           0.044664 (Hartree/Particle)
 Thermal correction to Energy=                    0.048245
 Thermal correction to Enthalpy=                  0.049190
 Thermal correction to Gibbs Free Energy=         0.018412
 Sum of electronic and zero-point Energies=           -257.138605
 Sum of electronic and thermal Energies=              -257.135024
 Sum of electronic and thermal Enthalpies=            -257.134080
 Sum of electronic and thermal Free Energies=         -257.164857

                     E (Thermal)             CV                S
                      KCal/Mol        Cal/Mol-Kelvin    Cal/Mol-Kelvin
 Total                   30.274             12.249             64.777
 Electronic               0.000              0.000              0.000
 Translational            0.889              2.981             38.656
 Rotational               0.889              2.981             24.132
 Vibrational             28.497              6.287              1.988

 Optimization completed.
    -- Stationary point found.
 Normal termination of Gaussian 09 at Mon Nov 25 17:01:21 2013.
