 Gaussian 09, Revision D.01,
 Gaussian 09:  EM64L-G09RevD.01 24-Apr-2013

 -------------------------------------
 #MP2/STO-3G opt=z-matrix freq density
 -------------------------------------

 ------------------------------------------------------------------
 1H-tetrazole CH2N4 casno=288948 state=1 config=1 method=3 basis=20
 ------------------------------------------------------------------
 Symbolic Z-matrix:
 Charge =  0 Multiplicity = 1

 SCF Done:  E(RHF) =  -253.451824229     A.U. after   14 cycles
 E2 =    -0.2845921302D+00 EUMP2 =    -0.25373641635887D+03
 SCF Done:  E(RHF) =  -253.468722205     A.U. after   14 cycles
 E2 =    -0.3230054684D+00 EUMP2 =    -0.25379172767378D+03
 SCF Done:  E(RHF) =  -253.453409420     A.U. after   14 cycles
 E2 =    -0.3437310886D+00 EUMP2 =    -0.25379714050905D+03
 SCF Done:  E(RHF) =  -253.453390792     A.U. after   14 cycles
 E2 =    -0.3453296504D+00 EUMP2 =    -0.25379872044202D+03
 SCF Done:  E(RHF) =  -253.452498963     A.U. after   13 cycles
 E2 =    -0.3465316663D+00 EUMP2 =    -0.25379903062944D+03
 SCF Done:  E(RHF) =  -253.451917338     A.U. after   12 cycles
 E2 =    -0.3471366553D+00 EUMP2 =    -0.25379905399376D+03
 SCF Done:  E(RHF) =  -253.451597902     A.U. after   12 cycles
 E2 =    -0.3474674069D+00 EUMP2 =    -0.25379906530869D+03
 SCF Done:  E(RHF) =  -253.450835876     A.U. after   13 cycles
 E2 =    -0.3480980516D+00 EUMP2 =    -0.25379893392772D+03
 SCF Done:  E(RHF) =  -253.451502567     A.U. after   11 cycles
 E2 =    -0.3475671970D+00 EUMP2 =    -0.25379906976376D+03
 SCF Done:  E(RHF) =  -253.451592520     A.U. after   10 cycles
 E2 =    -0.3474776943D+00 EUMP2 =    -0.25379907021400D+03
 SCF Done:  E(RHF) =  -253.452863117     A.U. after   14 cycles
 E2 =    -0.3457200585D+00 EUMP2 =    -0.25379858317528D+03
 SCF Done:  E(RHF) =  -253.451583478     A.U. after   10 cycles
 E2 =    -0.3474868411D+00 EUMP2 =    -0.25379907031873D+03
 Optimization completed.
    -- Stationary point found.
 Normal termination of Gaussian 09 at Tue Nov 26 03:15:23 2013.

 --------------------------------------------------------------------
 #N Geom=AllCheck Guess=TCheck SCRF=Check GenChk RMP2(FC)/STO-3G Freq
 --------------------------------------------------------------------

 Structure from the checkpoint file:  "/tmp/rdj3/g09-26531/Gau-14527.chk"
 ------------------------------------------------------------------
 1H-tetrazole CH2N4 casno=288948 state=1 config=1 method=3 basis=20
 ------------------------------------------------------------------
 Charge =  0 Multiplicity = 1

                         Standard orientation:
 ---------------------------------------------------------------------
 Center     Atomic      Atomic             Coordinates (Angstroms)
 Number     Number       Type             X           Y           Z
 ---------------------------------------------------------------------
      1          6           0        1.107536    0.256073    0.000000
      2          7           0        0.000000    1.105708    0.000000
      3          7           0       -1.200900    0.333812    0.000000
      4          7           0       -0.757543   -1.000133    0.000000
      5          7           0        0.707258   -1.055861    0.000000
      6          1           0        2.142181    0.625639    0.000000
      7          1           0       -0.029107    2.153243    0.000000
 ---------------------------------------------------------------------

 SCF Done:  E(RHF) =  -253.451583478     A.U. after    1 cycles
 E2 =    -0.3474868420D+00 EUMP2 =    -0.25379907031962D+03
 E2 =    -0.3474868420D+00 EUMP2 =    -0.25379907031962D+03

 The electronic state is 1-A'.
 Alpha  occ. eigenvalues --  -15.48079 -15.44070 -15.41037 -15.37805 -11.15305
 Alpha  occ. eigenvalues --   -1.35918  -1.15398  -1.09838  -0.82181  -0.79730
 Alpha  occ. eigenvalues --   -0.70851  -0.57396  -0.57079  -0.46775  -0.39948
 Alpha  occ. eigenvalues --   -0.38436  -0.35930  -0.33433
 Alpha virt. eigenvalues --    0.20572   0.27058   0.46145   0.48286   0.58717
 Alpha virt. eigenvalues --    0.60898   0.61821   0.79961   0.85872

 Mulliken charges:
               1
     1  C    0.073245
     2  N   -0.178317
     3  N   -0.034637
     4  N   -0.064658
     5  N   -0.143803
     6  H    0.104825
     7  H    0.243346
 Sum of Mulliken charges =   0.00000

 Dipole moment (field-independent basis, Debye):
    X=              1.9912    Y=              4.3689    Z=              0.0000  Tot=              4.8013
 Quadrupole moment (field-independent basis, Debye-Ang):
   XX=            -27.8442   YY=            -24.8959   ZZ=            -25.8937
   XY=              1.6551   XZ=              0.0000   YZ=              0.0000

  Exact polarizability:  23.784   1.791  24.977   0.000   0.000   6.246
 Approx polarizability:  30.086  -0.541  35.891   0.000   0.000   4.181

                      1                      2                      3
                     A"                     A"                     A"
 Frequencies --    442.4394               653.9439               671.7216
 Red. masses --      1.9537                 3.1928                 3.3805
 Frc consts  --      0.2253                 0.8045                 0.8987
 IR Inten    --     74.2322                 6.3964                16.6964

                      4                      5                      6
                     A"                     A'                     A'
 Frequencies --    833.1134               896.8434               966.0160
 Red. masses --      1.2272                 6.6327                 6.4642
 Frc consts  --      0.5019                 3.1432                 3.5541
 IR Inten    --     10.1913                 3.4452                 1.8636

                      7                      8                      9
                     A'                     A'                     A'
 Frequencies --   1020.2846              1036.8051              1126.5168
 Red. masses --      6.6386                 5.9191                 2.9586
 Frc consts  --      4.0716                 3.7489                 2.2121
 IR Inten    --     17.7648                 3.4258                 8.4639

                     10                     11                     12
                     A'                     A'                     A'
 Frequencies --   1160.1244              1264.4486              1492.4073
 Red. masses --      1.4586                 3.7374                 2.4609
 Frc consts  --      1.1566                 3.5207                 3.2293
 IR Inten    --      3.8873                 2.1539                39.9916

                     13                     14                     15
                     A'                     A'                     A'
 Frequencies --   1539.1808              3566.9514              3817.4355
 Red. masses --      5.1017                 1.0997                 1.0862
 Frc consts  --      7.1210                 8.2439                 9.3259
 IR Inten    --     21.1874                21.2513                91.0738

 - Thermochemistry -
 -------------------
 Temperature   298.150 Kelvin.  Pressure   1.00000 Atm.
 Atom     1 has atomic number  6 and mass  12.00000

 Molecular mass:    70.02795 amu.
 Principal axes and moments of inertia in atomic units:
                           1         2         3
     Eigenvalues --   190.67825 197.00127 387.67952
           X            0.79609   0.60518   0.00000
           Y           -0.60518   0.79609   0.00000
           Z            0.00000   0.00000   1.00000
 This molecule is an asymmetric top.
 Rotational symmetry number  1.
 Rotational temperatures (Kelvin)      0.45424     0.43966     0.22342
 Rotational constants (GHZ):           9.46485     9.16106     4.65524
 Zero-point vibrational energy     122546.8 (Joules/Mol)
                                   29.28940 (Kcal/Mol)
 Warning -- explicit consideration of   1 degrees of freedom as
           vibrations may cause significant error
 Vibrational temperatures:    636.57   940.88   966.46  1198.66  1290.36
          (Kelvin)           1389.88  1467.96  1491.73  1620.80  1669.16
                             1819.26  2147.24  2214.54  5132.04  5492.43

 Zero-point correction=                           0.046676 (Hartree/Particle)
 Thermal correction to Energy=                    0.050332
 Thermal correction to Enthalpy=                  0.051276
 Thermal correction to Gibbs Free Energy=         0.020331
 Sum of electronic and zero-point Energies=           -253.752395
 Sum of electronic and thermal Energies=              -253.748738
 Sum of electronic and thermal Enthalpies=            -253.747794
 Sum of electronic and thermal Free Energies=         -253.778739

                     E (Thermal)             CV                S
                      KCal/Mol        Cal/Mol-Kelvin    Cal/Mol-Kelvin
 Total                   31.584             12.155             65.129
 Electronic               0.000              0.000              0.000
 Translational            0.889              2.981             38.656
 Rotational               0.889              2.981             24.191
 Vibrational             29.806              6.193              2.282
 Vibration     1          0.802              1.378              0.819

 Optimization completed.
    -- Stationary point found.
 Normal termination of Gaussian 09 at Tue Nov 26 03:15:27 2013.
