 Gaussian 09, Revision D.01,
 Gaussian 09:  EM64L-G09RevD.01 24-Apr-2013

 ---------------------------------
 #MP2/6-311G(d,p) opt freq density
 ---------------------------------

 ------------------------------------------------------------------
 1H-tetrazole CH2N4 casno=288948 state=1 config=1 method=3 basis=21
 ------------------------------------------------------------------
 Symbolic Z-matrix:
 Charge =  0 Multiplicity = 1

 SCF Done:  E(RHF) =  -256.816035151     A.U. after   14 cycles
 E2 =    -0.8205367116D+00 EUMP2 =    -0.25763657186277D+03
 SCF Done:  E(RHF) =  -256.810283295     A.U. after   13 cycles
 E2 =    -0.8320152079D+00 EUMP2 =    -0.25764229850294D+03
 SCF Done:  E(RHF) =  -256.808084528     A.U. after   11 cycles
 E2 =    -0.8345197487D+00 EUMP2 =    -0.25764260427701D+03
 SCF Done:  E(RHF) =  -256.807360010     A.U. after   11 cycles
 E2 =    -0.8353070065D+00 EUMP2 =    -0.25764266701684D+03
 SCF Done:  E(RHF) =  -256.807446615     A.U. after   10 cycles
 E2 =    -0.8352374956D+00 EUMP2 =    -0.25764268411112D+03
 SCF Done:  E(RHF) =  -256.807608964     A.U. after   10 cycles
 E2 =    -0.8350781771D+00 EUMP2 =    -0.25764268714131D+03
 SCF Done:  E(RHF) =  -256.807651707     A.U. after    9 cycles
 E2 =    -0.8350363262D+00 EUMP2 =    -0.25764268803285D+03
 Optimization completed.
    -- Stationary point found.
 Normal termination of Gaussian 09 at Mon Dec 16 15:52:54 2013.

 ----------------------------------------------------------------------
 #N Geom=AllCheck Guess=TCheck SCRF=Check GenChk RMP2(FC)/6-311G(d,p) F
 req
 ----------------------------------------------------------------------

 Structure from the checkpoint file:  "/tmp/rdj3/g09-14118/Gau-16803.chk"
 ------------------------------------------------------------------
 1H-tetrazole CH2N4 casno=288948 state=1 config=1 method=3 basis=21
 ------------------------------------------------------------------
 Charge =  0 Multiplicity = 1

                         Standard orientation:
 ---------------------------------------------------------------------
 Center     Atomic      Atomic             Coordinates (Angstroms)
 Number     Number       Type             X           Y           Z
 ---------------------------------------------------------------------
      1          6           0        1.070783    0.235222    0.000000
      2          7           0        0.000000    1.054298    0.000000
      3          7           0       -1.122214    0.317527    0.000000
      4          7           0       -0.721581   -0.934492    0.000000
      5          7           0        0.634753   -1.014033    0.000000
      6          1           0        2.097780    0.563084    0.000000
      7          1           0       -0.059191    2.062485    0.000000
 ---------------------------------------------------------------------

 SCF Done:  E(RHF) =  -256.807651707     A.U. after    1 cycles
 E2 =    -0.8350363292D+00 EUMP2 =    -0.25764268803579D+03
 E2 =    -0.8350363292D+00 EUMP2 =    -0.25764268803579D+03

 The electronic state is 1-A'.
 Alpha  occ. eigenvalues --  -15.68575 -15.66243 -15.64582 -15.60520 -11.34086
 Alpha  occ. eigenvalues --   -1.49000  -1.25908  -1.18772  -0.90961  -0.88914
 Alpha  occ. eigenvalues --   -0.79802  -0.67608  -0.67329  -0.56646  -0.48402
 Alpha  occ. eigenvalues --   -0.47071  -0.45591  -0.41296
 Alpha virt. eigenvalues --    0.12649   0.12926   0.16615   0.17879   0.32761
 Alpha virt. eigenvalues --    0.36452   0.37489   0.44790   0.51609   0.56456
 Alpha virt. eigenvalues --    0.61241   0.62482   0.68777   0.74903   0.76969

 Mulliken charges:
               1
     1  C    0.194343
     2  N   -0.252619
     3  N   -0.032580
     4  N   -0.096844
     5  N   -0.218199
     6  H    0.149115
     7  H    0.256783
 Sum of Mulliken charges =   0.00000

 Dipole moment (field-independent basis, Debye):
    X=              2.5009    Y=              4.8692    Z=              0.0000  Tot=              5.4739
 Quadrupole moment (field-independent basis, Debye-Ang):
   XX=            -29.4518   YY=            -26.6571   ZZ=            -28.5894
   XY=              1.7223   XZ=              0.0000   YZ=              0.0000

  Exact polarizability:  38.788   1.358  37.373   0.000   0.000  17.503
 Approx polarizability:  38.803  -0.049  40.870   0.000   0.000  18.613

                      1                      2                      3
                     A"                     A"                     A"
 Frequencies --    612.2527               700.8475               735.6710
 Red. masses --      2.5252                 1.9493                 3.8467
 Frc consts  --      0.5577                 0.5641                 1.2266
 IR Inten    --     59.8956                16.3367                20.5702

                      4                      5                      6
                     A"                     A'                     A'
 Frequencies --    834.9030               968.6537              1011.4299
 Red. masses --      1.3150                 4.3014                 5.9674
 Frc consts  --      0.5401                 2.3779                 3.5967
 IR Inten    --     24.7384                 3.0575                 3.0835

                      7                      8                      9
                     A'                     A'                     A'
 Frequencies --   1093.9166              1114.0124              1153.9764
 Red. masses --      4.5542                 3.1932                 2.3019
 Frc consts  --      3.2109                 2.3349                 1.8061
 IR Inten    --     28.2182                15.7116                12.1242

                     10                     11                     12
                     A'                     A'                     A'
 Frequencies --   1201.2354              1269.5676              1487.9816
 Red. masses --      5.0716                 3.1696                 3.1091
 Frc consts  --      4.3118                 3.0100                 4.0558
 IR Inten    --      3.0526                 1.6009                13.7072

                     13                     14                     15
                     A'                     A'                     A'
 Frequencies --   1489.2411              3329.1227              3683.7014
 Red. masses --      3.1947                 1.1007                 1.0844
 Frc consts  --      4.1745                 7.1876                 8.6697
 IR Inten    --     18.2071                 2.4580               114.3404

 - Thermochemistry -
 -------------------
 Temperature   298.150 Kelvin.  Pressure   1.00000 Atm.
 Atom     1 has atomic number  6 and mass  12.00000

 Molecular mass:    70.02795 amu.
 Principal axes and moments of inertia in atomic units:
                           1         2         3
     Eigenvalues --   172.10813 176.01664 348.12477
           X           -0.68383   0.72964   0.00000
           Y            0.72964   0.68383   0.00000
           Z            0.00000   0.00000   1.00000
 This molecule is an asymmetric top.
 Rotational symmetry number  1.
 Rotational temperatures (Kelvin)      0.50325     0.49208     0.24880
 Rotational constants (GHZ):          10.48609    10.25324     5.18418
 Zero-point vibrational energy     123732.8 (Joules/Mol)
                                   29.57285 (Kcal/Mol)
 Warning -- explicit consideration of   1 degrees of freedom as
           vibrations may cause significant error
 Vibrational temperatures:    880.89  1008.36  1058.47  1201.24  1393.67
          (Kelvin)           1455.22  1573.90  1602.81  1660.31  1728.31
                             1826.62  2140.87  2142.68  4789.86  5300.02

 Zero-point correction=                           0.047127 (Hartree/Particle)
 Thermal correction to Energy=                    0.050579
 Thermal correction to Enthalpy=                  0.051524
 Thermal correction to Gibbs Free Energy=         0.021033
 Sum of electronic and zero-point Energies=           -257.595561
 Sum of electronic and thermal Energies=              -257.592109
 Sum of electronic and thermal Enthalpies=            -257.591165
 Sum of electronic and thermal Free Energies=         -257.621655

                     E (Thermal)             CV                S
                      KCal/Mol        Cal/Mol-Kelvin    Cal/Mol-Kelvin
 Total                   31.739             11.244             64.173
 Electronic               0.000              0.000              0.000
 Translational            0.889              2.981             38.656
 Rotational               0.889              2.981             23.871
 Vibrational             29.962              5.283              1.646
 Vibration     1          0.971              1.006              0.429

 Optimization completed.
    -- Stationary point found.
 Normal termination of Gaussian 09 at Mon Dec 16 15:53:56 2013.
