 Gaussian 09, Revision D.01,
 Gaussian 09:  EM64L-G09RevD.01 24-Apr-2013

 -----------------------------
 #MP2/6-31G** opt freq density
 -----------------------------

 -----------------------------------------------------------------
 1H-tetrazole CH2N4 casno=288948 state=1 config=1 method=3 basis=3
 -----------------------------------------------------------------
 Symbolic Z-matrix:
 Charge =  0 Multiplicity = 1

 SCF Done:  E(RHF) =  -256.760119309     A.U. after   15 cycles
 E2 =    -0.7847682184D+00 EUMP2 =    -0.25754488752766D+03
 SCF Done:  E(RHF) =  -256.753786616     A.U. after   13 cycles
 E2 =    -0.7983062158D+00 EUMP2 =    -0.25755209283134D+03
 SCF Done:  E(RHF) =  -256.751239492     A.U. after   13 cycles
 E2 =    -0.8012120450D+00 EUMP2 =    -0.25755245153694D+03
 SCF Done:  E(RHF) =  -256.750387952     A.U. after   12 cycles
 E2 =    -0.8021256788D+00 EUMP2 =    -0.25755251363107D+03
 SCF Done:  E(RHF) =  -256.750492791     A.U. after   11 cycles
 E2 =    -0.8020448623D+00 EUMP2 =    -0.25755253765310D+03
 SCF Done:  E(RHF) =  -256.750711503     A.U. after   11 cycles
 E2 =    -0.8018308518D+00 EUMP2 =    -0.25755254235448D+03
 Optimization completed.
    -- Stationary point found.
 Normal termination of Gaussian 09 at Mon Dec 16 15:54:23 2013.

 ----------------------------------------------------------------------
 #N Geom=AllCheck Guess=TCheck SCRF=Check GenChk RMP2(FC)/6-31G(d,p) Fr
 eq
 ----------------------------------------------------------------------

 Structure from the checkpoint file:  "/tmp/rdj3/g09-14118/Gau-17740.chk"
 -----------------------------------------------------------------
 1H-tetrazole CH2N4 casno=288948 state=1 config=1 method=3 basis=3
 -----------------------------------------------------------------
 Charge =  0 Multiplicity = 1

                         Standard orientation:
 ---------------------------------------------------------------------
 Center     Atomic      Atomic             Coordinates (Angstroms)
 Number     Number       Type             X           Y           Z
 ---------------------------------------------------------------------
      1          6           0        1.072324    0.239413    0.000000
      2          7           0        0.000000    1.055565    0.000000
      3          7           0       -1.128085    0.317796    0.000000
      4          7           0       -0.722013   -0.940704    0.000000
      5          7           0        0.639630   -1.013855    0.000000
      6          1           0        2.095418    0.569203    0.000000
      7          1           0       -0.056089    2.062714    0.000000
 ---------------------------------------------------------------------

 SCF Done:  E(RHF) =  -256.750711503     A.U. after    1 cycles
 E2 =    -0.8018308502D+00 EUMP2 =    -0.25755254235288D+03
 E2 =    -0.8018308502D+00 EUMP2 =    -0.25755254235288D+03

 The electronic state is 1-A'.
 Alpha  occ. eigenvalues --  -15.69339 -15.67089 -15.65459 -15.61260 -11.34341
 Alpha  occ. eigenvalues --   -1.48397  -1.25587  -1.18486  -0.90796  -0.88679
 Alpha  occ. eigenvalues --   -0.79612  -0.67366  -0.66981  -0.56412  -0.48280
 Alpha  occ. eigenvalues --   -0.46914  -0.45331  -0.41064
 Alpha virt. eigenvalues --    0.13249   0.18323   0.19633   0.25145   0.36253
 Alpha virt. eigenvalues --    0.38272   0.46054   0.49568   0.64074   0.73030
 Alpha virt. eigenvalues --    0.73991   0.82200   0.82520   0.88581   0.90727

 Mulliken charges:
               1
     1  C    0.257562
     2  N   -0.356155
     3  N   -0.044897
     4  N   -0.093009
     5  N   -0.279613
     6  H    0.183749
     7  H    0.332363
 Sum of Mulliken charges =   0.00000

 Dipole moment (field-independent basis, Debye):
    X=              2.5463    Y=              4.8927    Z=              0.0000  Tot=              5.5156
 Quadrupole moment (field-independent basis, Debye-Ang):
   XX=            -29.2489   YY=            -26.4195   ZZ=            -28.5665
   XY=              1.7642   XZ=              0.0000   YZ=              0.0000

  Exact polarizability:  37.617   1.345  36.323   0.000   0.000  15.491
 Approx polarizability:  38.570  -0.132  40.653   0.000   0.000  17.054

                      1                      2                      3
                     A"                     A"                     A"
 Frequencies --    611.7893               699.5746               735.8978
 Red. masses --      2.5734                 1.9349                 4.0931
 Frc consts  --      0.5675                 0.5579                 1.3060
 IR Inten    --     64.2458                18.4647                19.0731

                      4                      5                      6
                     A"                     A'                     A'
 Frequencies --    820.9087               969.0132              1010.3661
 Red. masses --      1.2808                 4.8531                 6.0914
 Frc consts  --      0.5086                 2.6849                 3.6637
 IR Inten    --     27.0751                 2.5041                 3.2612

                      7                      8                      9
                     A'                     A'                     A'
 Frequencies --   1092.7717              1117.1886              1157.3950
 Red. masses --      4.5970                 3.9855                 2.7013
 Frc consts  --      3.2343                 2.9308                 2.1320
 IR Inten    --     28.9493                11.0361                15.9134

                     10                     11                     12
                     A'                     A'                     A'
 Frequencies --   1202.0976              1279.8516              1500.4719
 Red. masses --      3.1099                 2.9155                 2.3913
 Frc consts  --      2.6477                 2.8138                 3.1720
 IR Inten    --      1.7435                 1.9723                25.9624

                     13                     14                     15
                     A'                     A'                     A'
 Frequencies --   1511.4455              3377.6318              3726.0929
 Red. masses --      4.4839                 1.1003                 1.0843
 Frc consts  --      6.0351                 7.3957                 8.8696
 IR Inten    --      9.8643                 2.0995               112.5019

 - Thermochemistry -
 -------------------
 Temperature   298.150 Kelvin.  Pressure   1.00000 Atm.
 Atom     1 has atomic number  6 and mass  12.00000

 Molecular mass:    70.02795 amu.
 Principal axes and moments of inertia in atomic units:
                           1         2         3
     Eigenvalues --   173.24112 176.80914 350.05026
           X            0.71062   0.70358   0.00000
           Y           -0.70358   0.71062   0.00000
           Z            0.00000   0.00000   1.00000
 This molecule is an asymmetric top.
 Rotational symmetry number  1.
 Rotational temperatures (Kelvin)      0.49996     0.48987     0.24743
 Rotational constants (GHZ):          10.41751    10.20728     5.15566
 Zero-point vibrational energy     124486.4 (Joules/Mol)
                                   29.75296 (Kcal/Mol)
 Warning -- explicit consideration of   1 degrees of freedom as
           vibrations may cause significant error
 Vibrational temperatures:    880.23  1006.53  1058.79  1181.10  1394.19
          (Kelvin)           1453.69  1572.25  1607.38  1665.23  1729.55
                             1841.42  2158.84  2174.63  4859.65  5361.01

 Zero-point correction=                           0.047414 (Hartree/Particle)
 Thermal correction to Energy=                    0.050869
 Thermal correction to Enthalpy=                  0.051813
 Thermal correction to Gibbs Free Energy=         0.021311
 Sum of electronic and zero-point Energies=           -257.505128
 Sum of electronic and thermal Energies=              -257.501673
 Sum of electronic and thermal Enthalpies=            -257.500729
 Sum of electronic and thermal Free Energies=         -257.531232

                     E (Thermal)             CV                S
                      KCal/Mol        Cal/Mol-Kelvin    Cal/Mol-Kelvin
 Total                   31.921             11.251             64.198
 Electronic               0.000              0.000              0.000
 Translational            0.889              2.981             38.656
 Rotational               0.889              2.981             23.887
 Vibrational             30.143              5.289              1.655
 Vibration     1          0.971              1.007              0.430

 Optimization completed.
    -- Stationary point found.
 Normal termination of Gaussian 09 at Mon Dec 16 15:54:55 2013.
