 Gaussian 09, Revision D.01,
 Gaussian 09:  EM64L-G09RevD.01 24-Apr-2013

 -----------------------------------
 #MP2/TZVP opt=z-matrix freq density
 -----------------------------------

 ------------------------------------------------------------------
 1H-tetrazole CH2N4 casno=288948 state=1 config=1 method=3 basis=32
 ------------------------------------------------------------------
 Symbolic Z-matrix:
 Charge =  0 Multiplicity = 1

 SCF Done:  E(RHF) =  -256.833827633     A.U. after   14 cycles
 E2 =    -0.8219230097D+00 EUMP2 =    -0.25765575064235D+03
 SCF Done:  E(RHF) =  -256.828503069     A.U. after   13 cycles
 E2 =    -0.8324482620D+00 EUMP2 =    -0.25766095133054D+03
 SCF Done:  E(RHF) =  -256.826484950     A.U. after   12 cycles
 E2 =    -0.8348106759D+00 EUMP2 =    -0.25766129562623D+03
 SCF Done:  E(RHF) =  -256.825864301     A.U. after   13 cycles
 E2 =    -0.8346573138D+00 EUMP2 =    -0.25766052161509D+03
 SCF Done:  E(RHF) =  -256.825673907     A.U. after   11 cycles
 E2 =    -0.8356533054D+00 EUMP2 =    -0.25766132721246D+03
 SCF Done:  E(RHF) =  -256.825630127     A.U. after   11 cycles
 E2 =    -0.8356867561D+00 EUMP2 =    -0.25766131688316D+03
 SCF Done:  E(RHF) =  -256.825715885     A.U. after    9 cycles
 E2 =    -0.8356240572D+00 EUMP2 =    -0.25766133994185D+03
 SCF Done:  E(RHF) =  -256.825923760     A.U. after   12 cycles
 E2 =    -0.8353913520D+00 EUMP2 =    -0.25766131511233D+03
 SCF Done:  E(RHF) =  -256.825744593     A.U. after    9 cycles
 E2 =    -0.8355958901D+00 EUMP2 =    -0.25766134048296D+03
 SCF Done:  E(RHF) =  -256.825840497     A.U. after   11 cycles
 E2 =    -0.8354740104D+00 EUMP2 =    -0.25766131450707D+03
 SCF Done:  E(RHF) =  -256.825748203     A.U. after    8 cycles
 E2 =    -0.8355924472D+00 EUMP2 =    -0.25766134065033D+03
 SCF Done:  E(RHF) =  -256.825868505     A.U. after   10 cycles
 E2 =    -0.8354684103D+00 EUMP2 =    -0.25766133691582D+03
 SCF Done:  E(RHF) =  -256.825734105     A.U. after    9 cycles
 E2 =    -0.8356053974D+00 EUMP2 =    -0.25766133950260D+03
 SCF Done:  E(RHF) =  -256.819073499     A.U. after   14 cycles
 E2 =    -0.8369806021D+00 EUMP2 =    -0.25765605410156D+03
 SCF Done:  E(RHF) =  -256.825746422     A.U. after    3 cycles
 E2 =    -0.8355943048D+00 EUMP2 =    -0.25766134072637D+03
 SCF Done:  E(RHF) =  -256.825520670     A.U. after   11 cycles
 E2 =    -0.8358104001D+00 EUMP2 =    -0.25766133106997D+03
 SCF Done:  E(RHF) =  -256.825746048     A.U. after    6 cycles
 E2 =    -0.8355946293D+00 EUMP2 =    -0.25766134067755D+03
 Optimization completed.
    -- Stationary point found.
 Normal termination of Gaussian 09 at Tue Nov 26 03:20:22 2013.

 ------------------------------------------------------------------
 #N Geom=AllCheck Guess=TCheck SCRF=Check GenChk RMP2(FC)/TZVP Freq
 ------------------------------------------------------------------

 Structure from the checkpoint file:  "/tmp/rdj3/g09-26531/Gau-19879.chk"
 ------------------------------------------------------------------
 1H-tetrazole CH2N4 casno=288948 state=1 config=1 method=3 basis=32
 ------------------------------------------------------------------
 Charge =  0 Multiplicity = 1

                         Standard orientation:
 ---------------------------------------------------------------------
 Center     Atomic      Atomic             Coordinates (Angstroms)
 Number     Number       Type             X           Y           Z
 ---------------------------------------------------------------------
      1          6           0        1.067966    0.236855    0.000000
      2          7           0        0.000000    1.054062    0.000000
      3          7           0       -1.122668    0.314775    0.000000
      4          7           0       -0.720825   -0.935524    0.000000
      5          7           0        0.637552   -1.011245    0.000000
      6          1           0        2.092000    0.562928    0.000000
      7          1           0       -0.058209    2.061469    0.000000
 ---------------------------------------------------------------------

 SCF Done:  E(RHF) =  -256.825746048     A.U. after    1 cycles
 E2 =    -0.8355946285D+00 EUMP2 =    -0.25766134067676D+03
 E2 =    -0.8355946285D+00 EUMP2 =    -0.25766134067676D+03

 The electronic state is 1-A'.
 Alpha  occ. eigenvalues --  -15.68979 -15.66854 -15.65212 -15.61033 -11.34214
 Alpha  occ. eigenvalues --   -1.49497  -1.26273  -1.19302  -0.91330  -0.89367
 Alpha  occ. eigenvalues --   -0.80273  -0.68007  -0.67659  -0.57006  -0.48694
 Alpha  occ. eigenvalues --   -0.47444  -0.45918  -0.41755
 Alpha virt. eigenvalues --    0.11083   0.11919   0.16527   0.16702   0.22183
 Alpha virt. eigenvalues --    0.23601   0.32819   0.33175   0.37842   0.40296
 Alpha virt. eigenvalues --    0.44068   0.47223   0.48868   0.49414   0.51458

 Mulliken charges:
               1
     1  C   -0.135844
     2  N   -0.074385
     3  N   -0.065733
     4  N   -0.092217
     5  N   -0.035302
     6  H    0.139462
     7  H    0.264019
 Sum of Mulliken charges =   0.00000

 Dipole moment (field-independent basis, Debye):
    X=              2.5876    Y=              4.9894    Z=              0.0000  Tot=              5.6205
 Quadrupole moment (field-independent basis, Debye-Ang):
   XX=            -29.9493   YY=            -27.0903   ZZ=            -28.9299
   XY=              1.8194   XZ=              0.0000   YZ=              0.0000

  Exact polarizability:  41.725   1.063  40.443   0.000   0.000  21.932
 Approx polarizability:  39.629  -0.206  41.863   0.000   0.000  22.289

                      1                      2                      3
                     A"                     A"                     A"
 Frequencies --    497.0126               682.2845               711.5805
 Red. masses --      2.3889                 2.2729                 3.9745
 Frc consts  --      0.3477                 0.6234                 1.1857
 IR Inten    --     52.8195                12.9099                13.2093

                      4                      5                      6
                     A"                     A'                     A'
 Frequencies --    781.1913               961.0748              1003.8983
 Red. masses --      1.2201                 4.9492                 6.5266
 Frc consts  --      0.4387                 2.6934                 3.8754
 IR Inten    --     43.0983                 2.8284                 1.5047

                      7                      8                      9
                     A'                     A'                     A'
 Frequencies --   1070.4230              1098.7508              1150.3611
 Red. masses --      6.1728                 3.3163                 2.8212
 Frc consts  --      4.1672                 2.3589                 2.1996
 IR Inten    --     29.6183                15.7718                14.9045

                     10                     11                     12
                     A'                     A'                     A'
 Frequencies --   1189.5951              1267.0962              1481.4495
 Red. masses --      3.2610                 2.7564                 2.8433
 Frc consts  --      2.7189                 2.6074                 3.6766
 IR Inten    --      3.0764                 2.4632                20.5568

                     13                     14                     15
                     A'                     A'                     A'
 Frequencies --   1487.3143              3342.8595              3674.1901
 Red. masses --      3.1212                 1.1007                 1.0845
 Frc consts  --      4.0679                 7.2471                 8.6259
 IR Inten    --     14.0021                 3.1322               118.0705

 - Thermochemistry -
 -------------------
 Temperature   298.150 Kelvin.  Pressure   1.00000 Atm.
 Atom     1 has atomic number  6 and mass  12.00000

 Molecular mass:    70.02795 amu.
 Principal axes and moments of inertia in atomic units:
                           1         2         3
     Eigenvalues --   172.02348 175.65086 347.67434
           X           -0.69303   0.72091   0.00000
           Y            0.72091   0.69303   0.00000
           Z            0.00000   0.00000   1.00000
 This molecule is an asymmetric top.
 Rotational symmetry number  1.
 Rotational temperatures (Kelvin)      0.50350     0.49310     0.24912
 Rotational constants (GHZ):          10.49125    10.27459     5.19090
 Zero-point vibrational energy     122013.6 (Joules/Mol)
                                   29.16195 (Kcal/Mol)
 Warning -- explicit consideration of   1 degrees of freedom as
           vibrations may cause significant error
 Vibrational temperatures:    715.09   981.65  1023.80  1123.96  1382.77
          (Kelvin)           1444.38  1540.10  1580.86  1655.11  1711.56
                             1823.07  2131.47  2139.91  4809.62  5286.33

 Zero-point correction=                           0.046473 (Hartree/Particle)
 Thermal correction to Energy=                    0.050037
 Thermal correction to Enthalpy=                  0.050981
 Thermal correction to Gibbs Free Energy=         0.020327
 Sum of electronic and zero-point Energies=           -257.614868
 Sum of electronic and thermal Energies=              -257.611304
 Sum of electronic and thermal Enthalpies=            -257.610360
 Sum of electronic and thermal Free Energies=         -257.641014

                     E (Thermal)             CV                S
                      KCal/Mol        Cal/Mol-Kelvin    Cal/Mol-Kelvin
 Total                   31.399             11.728             64.517
 Electronic               0.000              0.000              0.000
 Translational            0.889              2.981             38.656
 Rotational               0.889              2.981             23.867
 Vibrational             29.621              5.766              1.994
 Vibration     1          0.853              1.257              0.666

 Optimization completed.
    -- Stationary point found.
 Normal termination of Gaussian 09 at Tue Nov 26 03:21:52 2013.
