 Gaussian 09, Revision D.01,
 Gaussian 09:  EM64L-G09RevD.01 24-Apr-2013

 ------------------------------
 #MP2/6-31+G** opt freq density
 ------------------------------

 -----------------------------------------------------------------
 1H-tetrazole CH2N4 casno=288948 state=1 config=1 method=3 basis=4
 -----------------------------------------------------------------
 Symbolic Z-matrix:
 Charge =  0 Multiplicity = 1

 SCF Done:  E(RHF) =  -256.767607422     A.U. after   15 cycles
 E2 =    -0.7933570730D+00 EUMP2 =    -0.25756096449458D+03
 SCF Done:  E(RHF) =  -256.761071381     A.U. after   13 cycles
 E2 =    -0.8074904854D+00 EUMP2 =    -0.25756856186646D+03
 SCF Done:  E(RHF) =  -256.758268429     A.U. after   13 cycles
 E2 =    -0.8106705081D+00 EUMP2 =    -0.25756893893718D+03
 SCF Done:  E(RHF) =  -256.757244861     A.U. after   13 cycles
 E2 =    -0.8117722619D+00 EUMP2 =    -0.25756901712242D+03
 SCF Done:  E(RHF) =  -256.757603652     A.U. after   11 cycles
 E2 =    -0.8114474590D+00 EUMP2 =    -0.25756905111051D+03
 SCF Done:  E(RHF) =  -256.757823430     A.U. after   12 cycles
 E2 =    -0.8112333846D+00 EUMP2 =    -0.25756905681504D+03
 Optimization completed.
    -- Stationary point found.
 Normal termination of Gaussian 09 at Mon Dec 16 15:55:33 2013.

 ----------------------------------------------------------------------
 #N Geom=AllCheck Guess=TCheck SCRF=Check GenChk RMP2(FC)/6-31+G(d,p) F
 req
 ----------------------------------------------------------------------

 Structure from the checkpoint file:  "/tmp/rdj3/g09-14118/Gau-18575.chk"
 -----------------------------------------------------------------
 1H-tetrazole CH2N4 casno=288948 state=1 config=1 method=3 basis=4
 -----------------------------------------------------------------
 Charge =  0 Multiplicity = 1

                         Standard orientation:
 ---------------------------------------------------------------------
 Center     Atomic      Atomic             Coordinates (Angstroms)
 Number     Number       Type             X           Y           Z
 ---------------------------------------------------------------------
      1          6           0        1.073599    0.240466    0.000000
      2          7           0        0.000000    1.056873    0.000000
      3          7           0       -1.128329    0.317751    0.000000
      4          7           0       -0.722691   -0.942338    0.000000
      5          7           0        0.639346   -1.014467    0.000000
      6          1           0        2.097951    0.567282    0.000000
      7          1           0       -0.057825    2.065194    0.000000
 ---------------------------------------------------------------------

 SCF Done:  E(RHF) =  -256.757823430     A.U. after    1 cycles
 E2 =    -0.8112333844D+00 EUMP2 =    -0.25756905681485D+03
 E2 =    -0.8112333844D+00 EUMP2 =    -0.25756905681485D+03

 The electronic state is 1-A'.
 Alpha  occ. eigenvalues --  -15.70127 -15.68015 -15.66446 -15.62265 -11.35061
 Alpha  occ. eigenvalues --   -1.49150  -1.26341  -1.19193  -0.91507  -0.89374
 Alpha  occ. eigenvalues --   -0.80224  -0.68044  -0.67552  -0.57054  -0.48985
 Alpha  occ. eigenvalues --   -0.47590  -0.45982  -0.41669
 Alpha virt. eigenvalues --    0.05109   0.08192   0.08633   0.10070   0.12352
 Alpha virt. eigenvalues --    0.14723   0.16221   0.17201   0.18917   0.20628
 Alpha virt. eigenvalues --    0.22254   0.23521   0.24591   0.27248   0.28866

 Mulliken charges:
               1
     1  C    0.040891
     2  N   -0.298937
     3  N   -0.021639
     4  N   -0.032559
     5  N   -0.247640
     6  H    0.199623
     7  H    0.360261
 Sum of Mulliken charges =   0.00000

 Dipole moment (field-independent basis, Debye):
    X=              2.6934    Y=              5.0633    Z=              0.0000  Tot=              5.7351
 Quadrupole moment (field-independent basis, Debye-Ang):
   XX=            -30.1936   YY=            -27.3477   ZZ=            -29.4427
   XY=              1.9208   XZ=              0.0000   YZ=              0.0000

  Exact polarizability:  44.002   0.725  42.685   0.000   0.000  24.162
 Approx polarizability:  41.056  -0.337  43.178   0.000   0.000  23.743

                      1                      2                      3
                     A"                     A"                     A"
 Frequencies --    570.2085               685.2655               715.2513
 Red. masses --      2.5642                 2.0903                 3.9108
 Frc consts  --      0.4912                 0.5783                 1.1788
 IR Inten    --     58.8993                15.7728                17.6334

                      4                      5                      6
                     A"                     A'                     A'
 Frequencies --    803.1830               962.2534              1005.2235
 Red. masses --      1.2401                 4.9197                 6.3191
 Frc consts  --      0.4713                 2.6839                 3.7621
 IR Inten    --     39.5289                 2.6797                 2.0976

                      7                      8                      9
                     A'                     A'                     A'
 Frequencies --   1084.9353              1111.7272              1148.8555
 Red. masses --      4.7769                 4.0038                 2.8316
 Frc consts  --      3.3128                 2.9155                 2.2020
 IR Inten    --     32.1289                10.7988                17.1289

                     10                     11                     12
                     A'                     A'                     A'
 Frequencies --   1196.4552              1273.2007              1491.7784
 Red. masses --      2.9146                 2.8629                 2.3823
 Frc consts  --      2.4582                 2.7344                 3.1236
 IR Inten    --      2.0683                 1.8723                23.7411

                     13                     14                     15
                     A'                     A'                     A'
 Frequencies --   1499.6328              3374.5015              3711.2922
 Red. masses --      4.3619                 1.1006                 1.0847
 Frc consts  --      5.7795                 7.3840                 8.8026
 IR Inten    --     12.6851                 3.5530               121.5666

 - Thermochemistry -
 -------------------
 Temperature   298.150 Kelvin.  Pressure   1.00000 Atm.
 Atom     1 has atomic number  6 and mass  12.00000

 Molecular mass:    70.02795 amu.
 Principal axes and moments of inertia in atomic units:
                           1         2         3
     Eigenvalues --   173.67131 176.99661 350.66792
           X           -0.69063   0.72321   0.00000
           Y            0.72321   0.69063   0.00000
           Z            0.00000   0.00000   1.00000
 This molecule is an asymmetric top.
 Rotational symmetry number  1.
 Rotational temperatures (Kelvin)      0.49872     0.48935     0.24700
 Rotational constants (GHZ):          10.39171    10.19647     5.14658
 Zero-point vibrational energy     123417.3 (Joules/Mol)
                                   29.49745 (Kcal/Mol)
 Warning -- explicit consideration of   1 degrees of freedom as
           vibrations may cause significant error
 Vibrational temperatures:    820.40   985.94  1029.09  1155.60  1384.47
          (Kelvin)           1446.29  1560.98  1599.53  1652.94  1721.43
                             1831.85  2146.33  2157.63  4855.15  5339.72

 Zero-point correction=                           0.047007 (Hartree/Particle)
 Thermal correction to Energy=                    0.050509
 Thermal correction to Enthalpy=                  0.051453
 Thermal correction to Gibbs Free Energy=         0.020881
 Sum of electronic and zero-point Energies=           -257.522050
 Sum of electronic and thermal Energies=              -257.518548
 Sum of electronic and thermal Enthalpies=            -257.517604
 Sum of electronic and thermal Free Energies=         -257.548175

                     E (Thermal)             CV                S
                      KCal/Mol        Cal/Mol-Kelvin    Cal/Mol-Kelvin
 Total                   31.695             11.478             64.343
 Electronic               0.000              0.000              0.000
 Translational            0.889              2.981             38.656
 Rotational               0.889              2.981             23.892
 Vibrational             29.917              5.516              1.795
 Vibration     1          0.926              1.096              0.504

 Optimization completed.
    -- Stationary point found.
 Normal termination of Gaussian 09 at Mon Dec 16 15:56:36 2013.
