 Gaussian 09, Revision D.01,
 Gaussian 09:  EM64L-G09RevD.01 24-Apr-2013

 --------------------------------------
 #MP2/cc-pVDZ opt=z-matrix freq density
 --------------------------------------

 -----------------------------------------------------------------
 1H-tetrazole CH2N4 casno=288948 state=1 config=1 method=3 basis=5
 -----------------------------------------------------------------
 Symbolic Z-matrix:
 Charge =  0 Multiplicity = 1

 SCF Done:  E(RHF) =  -256.780056734     A.U. after   15 cycles
 E2 =    -0.7749059228D+00 EUMP2 =    -0.25755496265635D+03
 SCF Done:  E(RHF) =  -256.773164982     A.U. after   13 cycles
 E2 =    -0.7898623627D+00 EUMP2 =    -0.25756302734469D+03
 SCF Done:  E(RHF) =  -256.770937434     A.U. after   13 cycles
 E2 =    -0.7924556146D+00 EUMP2 =    -0.25756339304861D+03
 SCF Done:  E(RHF) =  -256.769896317     A.U. after   14 cycles
 E2 =    -0.7915929150D+00 EUMP2 =    -0.25756148923158D+03
 SCF Done:  E(RHF) =  -256.771081355     A.U. after   12 cycles
 E2 =    -0.7921144428D+00 EUMP2 =    -0.25756319579744D+03
 SCF Done:  E(RHF) =  -256.756979028     A.U. after   15 cycles
 E2 =    -0.8006721200D+00 EUMP2 =    -0.25755765114834D+03
 SCF Done:  E(RHF) =  -256.770046178     A.U. after   10 cycles
 E2 =    -0.7934164726D+00 EUMP2 =    -0.25756346265039D+03
 SCF Done:  E(RHF) =  -256.771789514     A.U. after   14 cycles
 E2 =    -0.7907808907D+00 EUMP2 =    -0.25756257040433D+03
 SCF Done:  E(RHF) =  -256.770290960     A.U. after   10 cycles
 E2 =    -0.7931862588D+00 EUMP2 =    -0.25756347721915D+03
 SCF Done:  E(RHF) =  -256.770273423     A.U. after   10 cycles
 E2 =    -0.7932069872D+00 EUMP2 =    -0.25756348041071D+03
 SCF Done:  E(RHF) =  -256.770252241     A.U. after    9 cycles
 E2 =    -0.7932281603D+00 EUMP2 =    -0.25756348040141D+03
 SCF Done:  E(RHF) =  -256.770251229     A.U. after    8 cycles
 E2 =    -0.7932293647D+00 EUMP2 =    -0.25756348059406D+03
 Optimization completed.
    -- Stationary point found.
 Normal termination of Gaussian 09 at Tue Nov 26 03:26:39 2013.

 ---------------------------------------------------------------------
 #N Geom=AllCheck Guess=TCheck SCRF=Check GenChk RMP2(FC)/CC-pVDZ Freq
 ---------------------------------------------------------------------

 Structure from the checkpoint file:  "/tmp/rdj3/g09-26531/Gau-26216.chk"
 -----------------------------------------------------------------
 1H-tetrazole CH2N4 casno=288948 state=1 config=1 method=3 basis=5
 -----------------------------------------------------------------
 Charge =  0 Multiplicity = 1

                         Standard orientation:
 ---------------------------------------------------------------------
 Center     Atomic      Atomic             Coordinates (Angstroms)
 Number     Number       Type             X           Y           Z
 ---------------------------------------------------------------------
      1          6           0        1.074399    0.235037    0.000000
      2          7           0        0.000000    1.058487    0.000000
      3          7           0       -1.125583    0.321158    0.000000
      4          7           0       -0.724533   -0.937341    0.000000
      5          7           0        0.635461   -1.021001    0.000000
      6          1           0        2.109946    0.567016    0.000000
      7          1           0       -0.053752    2.073643    0.000000
 ---------------------------------------------------------------------

 SCF Done:  E(RHF) =  -256.770251229     A.U. after    1 cycles
 E2 =    -0.7932293667D+00 EUMP2 =    -0.25756348059605D+03
 E2 =    -0.7932293667D+00 EUMP2 =    -0.25756348059605D+03

 The electronic state is 1-A'.
 Alpha  occ. eigenvalues --  -15.68857 -15.66379 -15.64754 -15.60888 -11.34555
 Alpha  occ. eigenvalues --   -1.48280  -1.25473  -1.18206  -0.90435  -0.88421
 Alpha  occ. eigenvalues --   -0.79072  -0.66980  -0.66798  -0.56187  -0.48054
 Alpha  occ. eigenvalues --   -0.46767  -0.45192  -0.40801
 Alpha virt. eigenvalues --    0.13321   0.15454   0.18283   0.19547   0.34294
 Alpha virt. eigenvalues --    0.38206   0.42745   0.46839   0.59548   0.66436
 Alpha virt. eigenvalues --    0.66468   0.75263   0.79365   0.81718   0.87233

 Mulliken charges:
               1
     1  C    0.173099
     2  N   -0.068241
     3  N   -0.064972
     4  N   -0.096091
     5  N   -0.177567
     6  H    0.081142
     7  H    0.152631
 Sum of Mulliken charges =   0.00000

 Dipole moment (field-independent basis, Debye):
    X=              2.4393    Y=              4.7886    Z=              0.0000  Tot=              5.3741
 Quadrupole moment (field-independent basis, Debye-Ang):
   XX=            -29.2999   YY=            -26.3946   ZZ=            -28.4670
   XY=              1.6838   XZ=              0.0000   YZ=              0.0000

  Exact polarizability:  37.960   1.465  36.248   0.000   0.000  15.963
 Approx polarizability:  38.893  -0.002  40.680   0.000   0.000  17.407

                      1                      2                      3
                     A"                     A"                     A"
 Frequencies --    604.6983               697.2757               739.1114
 Red. masses --      2.1630                 1.9777                 4.9221
 Frc consts  --      0.4660                 0.5665                 1.5843
 IR Inten    --     62.3837                11.7090                14.1731

                      4                      5                      6
                     A"                     A'                     A'
 Frequencies --    825.8588               962.9245              1005.3937
 Red. masses --      1.3198                 4.0529                 5.6710
 Frc consts  --      0.5304                 2.2141                 3.3774
 IR Inten    --     25.2164                 2.7167                 4.2235

                      7                      8                      9
                     A'                     A'                     A'
 Frequencies --   1089.1996              1113.7374              1143.8203
 Red. masses --      3.1989                 3.8266                 2.2088
 Frc consts  --      2.2360                 2.7966                 1.7026
 IR Inten    --     30.3890                12.4152                11.4662

                     10                     11                     12
                     A'                     A'                     A'
 Frequencies --   1195.8814              1263.8877              1474.7479
 Red. masses --      5.7538                 3.3228                 2.5604
 Frc consts  --      4.8482                 3.1273                 3.2809
 IR Inten    --      2.9818                 1.7296                20.1897

                     13                     14                     15
                     A'                     A'                     A'
 Frequencies --   1497.4077              3337.6453              3663.4711
 Red. masses --      4.9941                 1.1009                 1.0854
 Frc consts  --      6.5976                 7.2260                 8.5824
 IR Inten    --      9.0723                 2.5122               115.3413

 - Thermochemistry -
 -------------------
 Temperature   298.150 Kelvin.  Pressure   1.00000 Atm.
 Atom     1 has atomic number  6 and mass  12.00000

 Molecular mass:    70.02795 amu.
 Principal axes and moments of inertia in atomic units:
                           1         2         3
     Eigenvalues --   173.34445 177.63703 350.98148
           X           -0.63656   0.77123   0.00000
           Y            0.77123   0.63656   0.00000
           Z            0.00000   0.00000   1.00000
 This molecule is an asymmetric top.
 Rotational symmetry number  1.
 Rotational temperatures (Kelvin)      0.49966     0.48759     0.24678
 Rotational constants (GHZ):          10.41130    10.15971     5.14198
 Zero-point vibrational energy     123305.4 (Joules/Mol)
                                   29.47071 (Kcal/Mol)
 Warning -- explicit consideration of   1 degrees of freedom as
           vibrations may cause significant error
 Vibrational temperatures:    870.02  1003.22  1063.42  1188.23  1385.43
          (Kelvin)           1446.54  1567.11  1602.42  1645.70  1720.60
                             1818.45  2121.83  2154.43  4802.12  5270.91

 Zero-point correction=                           0.046965 (Hartree/Particle)
 Thermal correction to Energy=                    0.050427
 Thermal correction to Enthalpy=                  0.051371
 Thermal correction to Gibbs Free Energy=         0.020855
 Sum of electronic and zero-point Energies=           -257.516516
 Sum of electronic and thermal Energies=              -257.513054
 Sum of electronic and thermal Enthalpies=            -257.512109
 Sum of electronic and thermal Free Energies=         -257.542626

                     E (Thermal)             CV                S
                      KCal/Mol        Cal/Mol-Kelvin    Cal/Mol-Kelvin
 Total                   31.643             11.308             64.227
 Electronic               0.000              0.000              0.000
 Translational            0.889              2.981             38.656
 Rotational               0.889              2.981             23.895
 Vibrational             29.866              5.347              1.676
 Vibration     1          0.963              1.022              0.442

 Optimization completed.
    -- Stationary point found.
 Normal termination of Gaussian 09 at Tue Nov 26 03:27:19 2013.
