 Gaussian 09, Revision D.01,
 Gaussian 09:  EM64L-G09RevD.01 24-Apr-2013

 --------------------------------------
 #MP2/cc-pVTZ opt=z-matrix freq density
 --------------------------------------

 -----------------------------------------------------------------
 1H-tetrazole CH2N4 casno=288948 state=1 config=1 method=3 basis=6
 -----------------------------------------------------------------
 Symbolic Z-matrix:
 Charge =  0 Multiplicity = 1

 SCF Done:  E(RHF) =  -256.848466948     A.U. after   14 cycles
 E2 =    -0.9516515969D+00 EUMP2 =    -0.25780011854461D+03
 SCF Done:  E(RHF) =  -256.843320615     A.U. after   12 cycles
 E2 =    -0.9615334596D+00 EUMP2 =    -0.25780485407457D+03
 SCF Done:  E(RHF) =  -256.841267506     A.U. after   12 cycles
 E2 =    -0.9639607336D+00 EUMP2 =    -0.25780522823949D+03
 SCF Done:  E(RHF) =  -256.840145389     A.U. after   13 cycles
 E2 =    -0.9631859752D+00 EUMP2 =    -0.25780333136459D+03
 SCF Done:  E(RHF) =  -256.840373896     A.U. after   10 cycles
 E2 =    -0.9648432223D+00 EUMP2 =    -0.25780521711797D+03
 SCF Done:  E(RHF) =  -256.840926660     A.U. after    5 cycles
 E2 =    -0.9643105569D+00 EUMP2 =    -0.25780523721654D+03
 SCF Done:  E(RHF) =  -256.840581582     A.U. after   11 cycles
 E2 =    -0.9646788772D+00 EUMP2 =    -0.25780526045887D+03
 SCF Done:  E(RHF) =  -256.840355179     A.U. after   11 cycles
 E2 =    -0.9649168085D+00 EUMP2 =    -0.25780527198699D+03
 SCF Done:  E(RHF) =  -256.840547280     A.U. after    9 cycles
 E2 =    -0.9647307122D+00 EUMP2 =    -0.25780527799182D+03
 SCF Done:  E(RHF) =  -256.840531981     A.U. after    9 cycles
 E2 =    -0.9647486112D+00 EUMP2 =    -0.25780528059252D+03
 SCF Done:  E(RHF) =  -256.840888024     A.U. after   11 cycles
 E2 =    -0.9643429428D+00 EUMP2 =    -0.25780523096666D+03
 SCF Done:  E(RHF) =  -256.840539618     A.U. after   11 cycles
 E2 =    -0.9647157740D+00 EUMP2 =    -0.25780525539223D+03
 SCF Done:  E(RHF) =  -256.840530198     A.U. after    6 cycles
 E2 =    -0.9647506202D+00 EUMP2 =    -0.25780528081830D+03
 SCF Done:  E(RHF) =  -256.840626319     A.U. after    9 cycles
 E2 =    -0.9646513737D+00 EUMP2 =    -0.25780527769244D+03
 SCF Done:  E(RHF) =  -256.840559645     A.U. after    6 cycles
 E2 =    -0.9647212070D+00 EUMP2 =    -0.25780528085239D+03
 SCF Done:  E(RHF) =  -256.840595203     A.U. after    7 cycles
 E2 =    -0.9646855988D+00 EUMP2 =    -0.25780528080225D+03
 SCF Done:  E(RHF) =  -256.840568203     A.U. after    5 cycles
 E2 =    -0.9647125795D+00 EUMP2 =    -0.25780528078242D+03
 SCF Done:  E(RHF) =  -256.840557914     A.U. after    7 cycles
 E2 =    -0.9647229027D+00 EUMP2 =    -0.25780528081643D+03
 SCF Done:  E(RHF) =  -256.840569565     A.U. after    6 cycles
 E2 =    -0.9647112908D+00 EUMP2 =    -0.25780528085609D+03
 Optimization completed.
    -- Stationary point found.
 Normal termination of Gaussian 09 at Tue Nov 26 03:48:55 2013.

 ---------------------------------------------------------------------
 #N Geom=AllCheck Guess=TCheck SCRF=Check GenChk RMP2(FC)/CC-pVTZ Freq
 ---------------------------------------------------------------------

 Structure from the checkpoint file:  "/tmp/rdj3/g09-26531/Gau-27644.chk"
 -----------------------------------------------------------------
 1H-tetrazole CH2N4 casno=288948 state=1 config=1 method=3 basis=6
 -----------------------------------------------------------------
 Charge =  0 Multiplicity = 1

                         Standard orientation:
 ---------------------------------------------------------------------
 Center     Atomic      Atomic             Coordinates (Angstroms)
 Number     Number       Type             X           Y           Z
 ---------------------------------------------------------------------
      1          6           0        1.067134    0.236092    0.000000
      2          7           0        0.000000    1.051638    0.000000
      3          7           0       -1.119550    0.317482    0.000000
      4          7           0       -0.719753   -0.933880    0.000000
      5          7           0        0.633968   -1.011902    0.000000
      6          1           0        2.089973    0.562946    0.000000
      7          1           0       -0.055427    2.057132    0.000000
 ---------------------------------------------------------------------

 SCF Done:  E(RHF) =  -256.840569565     A.U. after    1 cycles
 E2 =    -0.9647112872D+00 EUMP2 =    -0.25780528085243D+03
 E2 =    -0.9647112872D+00 EUMP2 =    -0.25780528085243D+03

 The electronic state is 1-A'.
 Alpha  occ. eigenvalues --  -15.68466 -15.66226 -15.64737 -15.60548 -11.33657
 Alpha  occ. eigenvalues --   -1.48803  -1.25776  -1.18482  -0.90848  -0.88839
 Alpha  occ. eigenvalues --   -0.79723  -0.67499  -0.67475  -0.56601  -0.48345
 Alpha  occ. eigenvalues --   -0.47001  -0.45601  -0.41181
 Alpha virt. eigenvalues --    0.11536   0.12850   0.15722   0.17431   0.26823
 Alpha virt. eigenvalues --    0.29531   0.35432   0.40174   0.42407   0.47028
 Alpha virt. eigenvalues --    0.51493   0.54986   0.56509   0.57512   0.59420

 Mulliken charges:
               1
     1  C   -0.107366
     2  N   -0.014194
     3  N   -0.072092
     4  N   -0.085541
     5  N   -0.128010
     6  H    0.185977
     7  H    0.221226
 Sum of Mulliken charges =   0.00000

 Dipole moment (field-independent basis, Debye):
    X=              2.4859    Y=              4.8044    Z=              0.0000  Tot=              5.4095
 Quadrupole moment (field-independent basis, Debye-Ang):
   XX=            -29.3162   YY=            -26.4830   ZZ=            -28.6146
   XY=              1.7623   XZ=              0.0000   YZ=              0.0000

  Exact polarizability:  41.432   1.166  39.840   0.000   0.000  20.735
 Approx polarizability:  40.918   0.003  42.512   0.000   0.000  22.719

                      1                      2                      3
                     A"                     A"                     A"
 Frequencies --    624.8562               701.2865               742.6706
 Red. masses --      2.1457                 1.9143                 5.0182
 Frc consts  --      0.4936                 0.5547                 1.6308
 IR Inten    --     61.8912                11.6775                15.1116

                      4                      5                      6
                     A"                     A'                     A'
 Frequencies --    847.2249               963.1660              1006.0901
 Red. masses --      1.3477                 4.4736                 5.9816
 Frc consts  --      0.5699                 2.4452                 3.5673
 IR Inten    --     22.9036                 2.6968                 3.6886

                      7                      8                      9
                     A'                     A'                     A'
 Frequencies --   1081.2528              1109.4775              1145.6192
 Red. masses --      4.2153                 3.6070                 2.5359
 Frc consts  --      2.9036                 2.6160                 1.9609
 IR Inten    --     29.9394                12.4919                12.5777

                     10                     11                     12
                     A'                     A'                     A'
 Frequencies --   1187.6072              1262.3921              1472.0695
 Red. masses --      3.8632                 3.0187                 2.4369
 Frc consts  --      3.2103                 2.8343                 3.1114
 IR Inten    --      2.0921                 1.5430                21.5926

                     13                     14                     15
                     A'                     A'                     A'
 Frequencies --   1488.6193              3328.7995              3670.7676
 Red. masses --      4.6500                 1.1009                 1.0846
 Frc consts  --      6.0712                 7.1877                 8.6106
 IR Inten    --      7.5466                 2.8674               113.6982

 - Thermochemistry -
 -------------------
 Temperature   298.150 Kelvin.  Pressure   1.00000 Atm.
 Atom     1 has atomic number  6 and mass  12.00000

 Molecular mass:    70.02795 amu.
 Principal axes and moments of inertia in atomic units:
                           1         2         3
     Eigenvalues --   171.37767 175.19869 346.57636
           X           -0.65221   0.75803   0.00000
           Y            0.75803   0.65221   0.00000
           Z            0.00000   0.00000   1.00000
 This molecule is an asymmetric top.
 Rotational symmetry number  1.
 Rotational temperatures (Kelvin)      0.50540     0.49437     0.24991
 Rotational constants (GHZ):          10.53078    10.30111     5.20734
 Zero-point vibrational energy     123406.2 (Joules/Mol)
                                   29.49478 (Kcal/Mol)
 Vibrational temperatures:    899.03  1008.99  1068.54  1218.97  1385.78
          (Kelvin)           1447.54  1555.68  1596.29  1648.29  1708.70
                             1816.30  2117.98  2141.79  4789.39  5281.41

 Zero-point correction=                           0.047003 (Hartree/Particle)
 Thermal correction to Energy=                    0.050448
 Thermal correction to Enthalpy=                  0.051392
 Thermal correction to Gibbs Free Energy=         0.020918
 Sum of electronic and zero-point Energies=           -257.758278
 Sum of electronic and thermal Energies=              -257.754833
 Sum of electronic and thermal Enthalpies=            -257.753888
 Sum of electronic and thermal Free Energies=         -257.784362

                     E (Thermal)             CV                S
                      KCal/Mol        Cal/Mol-Kelvin    Cal/Mol-Kelvin
 Total                   31.657             11.236             64.138
 Electronic               0.000              0.000              0.000
 Translational            0.889              2.981             38.656
 Rotational               0.889              2.981             23.857
 Vibrational             29.879              5.275              1.625

 Optimization completed.
    -- Stationary point found.
 Normal termination of Gaussian 09 at Tue Nov 26 04:01:00 2013.
