 Gaussian 09, Revision D.01,
 Gaussian 09:  EM64L-G09RevD.01 24-Apr-2013

 --------------------------------------
 #MP2/6-311G* opt=z-matrix freq density
 --------------------------------------

 -----------------------------------------------------------------
 1H-tetrazole CH2N4 casno=288948 state=1 config=1 method=3 basis=7
 -----------------------------------------------------------------
 Symbolic Z-matrix:
 Charge =  0 Multiplicity = 1

 SCF Done:  E(RHF) =  -256.810747258     A.U. after   14 cycles
 E2 =    -0.8105285881D+00 EUMP2 =    -0.25762127584607D+03
 SCF Done:  E(RHF) =  -256.804945328     A.U. after   13 cycles
 E2 =    -0.8220227285D+00 EUMP2 =    -0.25762696805661D+03
 SCF Done:  E(RHF) =  -256.803006333     A.U. after   12 cycles
 E2 =    -0.8243045115D+00 EUMP2 =    -0.25762731084408D+03
 SCF Done:  E(RHF) =  -256.801569439     A.U. after   14 cycles
 E2 =    -0.8231203411D+00 EUMP2 =    -0.25762468978016D+03
 SCF Done:  E(RHF) =  -256.802121119     A.U. after   11 cycles
 E2 =    -0.8251844157D+00 EUMP2 =    -0.25762730553490D+03
 SCF Done:  E(RHF) =  -256.802630239     A.U. after    6 cycles
 E2 =    -0.8246894156D+00 EUMP2 =    -0.25762731965455D+03
 SCF Done:  E(RHF) =  -256.802440738     A.U. after   11 cycles
 E2 =    -0.8248691591D+00 EUMP2 =    -0.25762730989676D+03
 SCF Done:  E(RHF) =  -256.802364080     A.U. after   11 cycles
 E2 =    -0.8249880415D+00 EUMP2 =    -0.25762735212153D+03
 SCF Done:  E(RHF) =  -256.802121756     A.U. after   11 cycles
 E2 =    -0.8252237903D+00 EUMP2 =    -0.25762734554600D+03
 SCF Done:  E(RHF) =  -256.802352284     A.U. after   11 cycles
 E2 =    -0.8250073229D+00 EUMP2 =    -0.25762735960720D+03
 SCF Done:  E(RHF) =  -256.802239456     A.U. after   11 cycles
 E2 =    -0.8251046656D+00 EUMP2 =    -0.25762734412181D+03
 SCF Done:  E(RHF) =  -256.802326644     A.U. after    8 cycles
 E2 =    -0.8250356628D+00 EUMP2 =    -0.25762736230710D+03
 SCF Done:  E(RHF) =  -256.802315308     A.U. after    8 cycles
 E2 =    -0.8250470622D+00 EUMP2 =    -0.25762736236987D+03
 SCF Done:  E(RHF) =  -256.802322196     A.U. after    7 cycles
 E2 =    -0.8250401931D+00 EUMP2 =    -0.25762736238885D+03
 Optimization completed.
    -- Stationary point found.
 Normal termination of Gaussian 09 at Tue Nov 26 04:02:20 2013.

 ----------------------------------------------------------------------
 #N Geom=AllCheck Guess=TCheck SCRF=Check GenChk RMP2(FC)/6-311G(d) Fre
 q
 ----------------------------------------------------------------------

 Structure from the checkpoint file:  "/tmp/rdj3/g09-26531/Gau-29820.chk"
 -----------------------------------------------------------------
 1H-tetrazole CH2N4 casno=288948 state=1 config=1 method=3 basis=7
 -----------------------------------------------------------------
 Charge =  0 Multiplicity = 1

                         Standard orientation:
 ---------------------------------------------------------------------
 Center     Atomic      Atomic             Coordinates (Angstroms)
 Number     Number       Type             X           Y           Z
 ---------------------------------------------------------------------
      1          6           0        1.070458    0.235544    0.000000
      2          7           0        0.000000    1.054434    0.000000
      3          7           0       -1.121786    0.317662    0.000000
      4          7           0       -0.721540   -0.934614    0.000000
      5          7           0        0.634490   -1.014063    0.000000
      6          1           0        2.098815    0.561343    0.000000
      7          1           0       -0.059704    2.061457    0.000000
 ---------------------------------------------------------------------

 SCF Done:  E(RHF) =  -256.802322196     A.U. after    1 cycles
 E2 =    -0.8250401889D+00 EUMP2 =    -0.25762736238470D+03
 E2 =    -0.8250401889D+00 EUMP2 =    -0.25762736238470D+03

 The electronic state is 1-A'.
 Alpha  occ. eigenvalues --  -15.68614 -15.66224 -15.64556 -15.60481 -11.34130
 Alpha  occ. eigenvalues --   -1.49030  -1.25963  -1.18766  -0.91062  -0.88939
 Alpha  occ. eigenvalues --   -0.79888  -0.67659  -0.67334  -0.56660  -0.48393
 Alpha  occ. eigenvalues --   -0.47051  -0.45584  -0.41252
 Alpha virt. eigenvalues --    0.12605   0.13069   0.16603   0.17952   0.32860
 Alpha virt. eigenvalues --    0.36472   0.37552   0.44848   0.51640   0.56541
 Alpha virt. eigenvalues --    0.61289   0.62491   0.69205   0.75289   0.77785

 Mulliken charges:
               1
     1  C    0.084349
     2  N   -0.412033
     3  N   -0.018308
     4  N   -0.098416
     5  N   -0.217495
     6  H    0.271346
     7  H    0.390558
 Sum of Mulliken charges =   0.00000

 Dipole moment (field-independent basis, Debye):
    X=              2.5546    Y=              4.9619    Z=              0.0000  Tot=              5.5809
 Quadrupole moment (field-independent basis, Debye-Ang):
   XX=            -29.3506   YY=            -26.5009   ZZ=            -28.6867
   XY=              1.7614   XZ=              0.0000   YZ=              0.0000

  Exact polarizability:  38.573   1.326  37.061   0.000   0.000  17.241
 Approx polarizability:  38.577  -0.065  40.533   0.000   0.000  18.275

                      1                      2                      3
                     A"                     A"                     A"
 Frequencies --    615.2744               702.6308               736.0601
 Red. masses --      2.5373                 1.8719                 4.0848
 Frc consts  --      0.5659                 0.5445                 1.3039
 IR Inten    --     66.9157                17.2792                19.2149

                      4                      5                      6
                     A"                     A'                     A'
 Frequencies --    819.5624               972.2462              1014.4289
 Red. masses --      1.3223                 4.5243                 5.9868
 Frc consts  --      0.5233                 2.5198                 3.6299
 IR Inten    --     32.9272                 3.3813                 3.1765

                      7                      8                      9
                     A'                     A'                     A'
 Frequencies --   1097.5755              1117.5997              1158.2798
 Red. masses --      5.4184                 3.0210                 2.4687
 Frc consts  --      3.8459                 2.2232                 1.9514
 IR Inten    --     27.5369                17.5794                13.5362

                     10                     11                     12
                     A'                     A'                     A'
 Frequencies --   1204.9472              1271.4234              1490.8339
 Red. masses --      4.3175                 3.2206                 4.5913
 Frc consts  --      3.6934                 3.0674                 6.0124
 IR Inten    --      2.4061                 1.7824                 7.2333

                     13                     14                     15
                     A'                     A'                     A'
 Frequencies --   1502.4636              3325.0691              3696.0012
 Red. masses --      2.2408                 1.1011                 1.0844
 Frc consts  --      2.9803                 7.1725                 8.7280
 IR Inten    --     26.7322                 1.9654               103.2444

 - Thermochemistry -
 -------------------
 Temperature   298.150 Kelvin.  Pressure   1.00000 Atm.
 Atom     1 has atomic number  6 and mass  12.00000

 Molecular mass:    70.02795 amu.
 Principal axes and moments of inertia in atomic units:
                           1         2         3
     Eigenvalues --   172.08352 175.97743 348.06095
           X           -0.67432   0.73844   0.00000
           Y            0.73844   0.67432   0.00000
           Z            0.00000   0.00000   1.00000
 This molecule is an asymmetric top.
 Rotational symmetry number  1.
 Rotational temperatures (Kelvin)      0.50332     0.49219     0.24885
 Rotational constants (GHZ):          10.48759    10.25553     5.18513
 Zero-point vibrational energy     123959.4 (Joules/Mol)
                                   29.62701 (Kcal/Mol)
 Warning -- explicit consideration of   1 degrees of freedom as
           vibrations may cause significant error
 Vibrational temperatures:    885.24  1010.93  1059.03  1179.17  1398.84
          (Kelvin)           1459.54  1579.16  1607.97  1666.50  1733.65
                             1829.29  2144.97  2161.71  4784.03  5317.71

 Zero-point correction=                           0.047214 (Hartree/Particle)
 Thermal correction to Energy=                    0.050665
 Thermal correction to Enthalpy=                  0.051609
 Thermal correction to Gibbs Free Energy=         0.021120
 Sum of electronic and zero-point Energies=           -257.580149
 Sum of electronic and thermal Energies=              -257.576698
 Sum of electronic and thermal Enthalpies=            -257.575754
 Sum of electronic and thermal Free Energies=         -257.606243

                     E (Thermal)             CV                S
                      KCal/Mol        Cal/Mol-Kelvin    Cal/Mol-Kelvin
 Total                   31.792             11.234             64.170
 Electronic               0.000              0.000              0.000
 Translational            0.889              2.981             38.656
 Rotational               0.889              2.981             23.870
 Vibrational             30.015              5.272              1.643
 Vibration     1          0.975              1.000              0.424

 Normal termination of Gaussian 09 at Tue Nov 26 04:03:23 2013.
