 Gaussian 09, Revision D.01,
 Gaussian 09:  EM64L-G09RevD.01 24-Apr-2013

 -------------------------------------
 #MP2/3-21G* opt=z-matrix freq density
 -------------------------------------

 -----------------------------------------------------------------
 1H-tetrazole CH2N4 casno=288948 state=1 config=1 method=3 basis=8
 -----------------------------------------------------------------
 Symbolic Z-matrix:
 Charge =  0 Multiplicity = 1

 SCF Done:  E(RHF) =  -255.261114440     A.U. after   14 cycles
 E2 =    -0.5240768282D+00 EUMP2 =    -0.25578519126841D+03
 SCF Done:  E(RHF) =  -255.263787027     A.U. after   15 cycles
 E2 =    -0.5520206318D+00 EUMP2 =    -0.25581580765925D+03
 SCF Done:  E(RHF) =  -255.252858734     A.U. after   14 cycles
 E2 =    -0.5666055393D+00 EUMP2 =    -0.25581946427313D+03
 SCF Done:  E(RHF) =  -255.252456400     A.U. after   14 cycles
 E2 =    -0.5675583209D+00 EUMP2 =    -0.25582001472063D+03
 SCF Done:  E(RHF) =  -255.251381230     A.U. after   12 cycles
 E2 =    -0.5690984258D+00 EUMP2 =    -0.25582047965603D+03
 SCF Done:  E(RHF) =  -255.251271519     A.U. after   13 cycles
 E2 =    -0.5692681146D+00 EUMP2 =    -0.25582053963386D+03
 SCF Done:  E(RHF) =  -255.251645318     A.U. after   14 cycles
 E2 =    -0.5681456197D+00 EUMP2 =    -0.25581979093814D+03
 SCF Done:  E(RHF) =  -255.250540266     A.U. after   12 cycles
 E2 =    -0.5700207324D+00 EUMP2 =    -0.25582056099861D+03
 SCF Done:  E(RHF) =  -255.250499384     A.U. after   12 cycles
 E2 =    -0.5700710291D+00 EUMP2 =    -0.25582057041330D+03
 SCF Done:  E(RHF) =  -255.250133849     A.U. after   13 cycles
 E2 =    -0.5704332969D+00 EUMP2 =    -0.25582056714609D+03
 SCF Done:  E(RHF) =  -255.250309349     A.U. after   11 cycles
 E2 =    -0.5702688663D+00 EUMP2 =    -0.25582057821536D+03
 SCF Done:  E(RHF) =  -255.250336693     A.U. after   12 cycles
 E2 =    -0.5702438377D+00 EUMP2 =    -0.25582058053076D+03
 SCF Done:  E(RHF) =  -255.250363816     A.U. after   10 cycles
 E2 =    -0.5702175038D+00 EUMP2 =    -0.25582058131955D+03
 SCF Done:  E(RHF) =  -255.250727227     A.U. after   13 cycles
 E2 =    -0.5697477557D+00 EUMP2 =    -0.25582047498235D+03
 SCF Done:  E(RHF) =  -255.250372046     A.U. after   11 cycles
 E2 =    -0.5702095795D+00 EUMP2 =    -0.25582058162582D+03
 Optimization completed.
    -- Stationary point found.
 Normal termination of Gaussian 09 at Tue Nov 26 04:03:48 2013.

 --------------------------------------------------------------------
 #N Geom=AllCheck Guess=TCheck SCRF=Check GenChk RMP2(FC)/3-21G* Freq
 --------------------------------------------------------------------

 Structure from the checkpoint file:  "/tmp/rdj3/g09-26531/Gau-32046.chk"
 -----------------------------------------------------------------
 1H-tetrazole CH2N4 casno=288948 state=1 config=1 method=3 basis=8
 -----------------------------------------------------------------
 Charge =  0 Multiplicity = 1

                         Standard orientation:
 ---------------------------------------------------------------------
 Center     Atomic      Atomic             Coordinates (Angstroms)
 Number     Number       Type             X           Y           Z
 ---------------------------------------------------------------------
      1          6           0        1.087946    0.264799    0.000000
      2          7           0        0.000000    1.098756    0.000000
      3          7           0       -1.192300    0.317064    0.000000
      4          7           0       -0.750742   -1.004240    0.000000
      5          7           0        0.717958   -1.027793    0.000000
      6          1           0        2.105629    0.613171    0.000000
      7          1           0       -0.057725    2.111525    0.000000
 ---------------------------------------------------------------------

 SCF Done:  E(RHF) =  -255.250372046     A.U. after    1 cycles
 E2 =    -0.5702095790D+00 EUMP2 =    -0.25582058162534D+03
 E2 =    -0.5702095790D+00 EUMP2 =    -0.25582058162534D+03

 The electronic state is 1-A'.
 Alpha  occ. eigenvalues --  -15.62450 -15.62245 -15.60753 -15.55903 -11.30923
 Alpha  occ. eigenvalues --   -1.45214  -1.23639  -1.18845  -0.89981  -0.87464
 Alpha  occ. eigenvalues --   -0.79241  -0.65083  -0.64975  -0.55096  -0.48543
 Alpha  occ. eigenvalues --   -0.46611  -0.44500  -0.41835
 Alpha virt. eigenvalues --    0.10497   0.16335   0.22760   0.25793   0.33849
 Alpha virt. eigenvalues --    0.36693   0.41453   0.53961   0.59434   0.91961
 Alpha virt. eigenvalues --    0.93875   1.04198   1.08918   1.20281   1.31664

 Mulliken charges:
               1
     1  C    0.272277
     2  N   -0.506392
     3  N   -0.029081
     4  N   -0.079016
     5  N   -0.305659
     6  H    0.270029
     7  H    0.377842
 Sum of Mulliken charges =   0.00000

 Dipole moment (field-independent basis, Debye):
    X=              2.3986    Y=              4.9965    Z=              0.0000  Tot=              5.5424
 Quadrupole moment (field-independent basis, Debye-Ang):
   XX=            -29.8125   YY=            -26.7330   ZZ=            -28.9984
   XY=              1.9635   XZ=              0.0000   YZ=              0.0000

  Exact polarizability:  35.231   2.048  34.257   0.000   0.000  11.221
 Approx polarizability:  39.227  -0.703  44.008   0.000   0.000   9.049

                      1                      2                      3
                     A"                     A"                     A"
 Frequencies --    614.2484               668.8718               682.4038
 Red. masses --      3.0344                 3.4544                 1.7156
 Frc consts  --      0.6745                 0.9106                 0.4707
 IR Inten    --     78.9521                 3.5194                69.3284

                      4                      5                      6
                     A'                     A'                     A"
 Frequencies --    737.9921               811.0406               885.1284
 Red. masses --     11.0867                 9.1374                 1.3566
 Frc consts  --      3.5576                 3.5413                 0.6262
 IR Inten    --     18.0700                 2.6783                24.2921

                      7                      8                      9
                     A'                     A'                     A'
 Frequencies --    910.0637               977.4167               987.4266
 Red. masses --      5.6988                 8.8787                 7.3302
 Frc consts  --      2.7809                 4.9976                 4.2109
 IR Inten    --     11.0551                 1.4957                 3.3590

                     10                     11                     12
                     A'                     A'                     A'
 Frequencies --   1123.1678              1195.9461              1373.0348
 Red. masses --      2.2576                 2.1909                 2.5444
 Frc consts  --      1.6779                 1.8463                 2.8262
 IR Inten    --      6.4161                17.2231                 7.0557

                     13                     14                     15
                     A'                     A'                     A'
 Frequencies --   1412.5426              3336.9700              3591.7274
 Red. masses --      1.6636                 1.0983                 1.0848
 Frc consts  --      1.9557                 7.2054                 8.2453
 IR Inten    --     53.5747                 1.3877               118.5094

 - Thermochemistry -
 -------------------
 Temperature   298.150 Kelvin.  Pressure   1.00000 Atm.
 Atom     1 has atomic number  6 and mass  12.00000

 Molecular mass:    70.02795 amu.
 Principal axes and moments of inertia in atomic units:
                           1         2         3
     Eigenvalues --   187.78722 192.42303 380.21025
           X            0.89815   0.43970   0.00000
           Y           -0.43970   0.89815   0.00000
           Z            0.00000   0.00000   1.00000
 This molecule is an asymmetric top.
 Rotational symmetry number  1.
 Rotational temperatures (Kelvin)      0.46123     0.45012     0.22781
 Rotational constants (GHZ):           9.61056     9.37903     4.74669
 Zero-point vibrational energy     115487.4 (Joules/Mol)
                                   27.60214 (Kcal/Mol)
 Warning -- explicit consideration of   1 degrees of freedom as
           vibrations may cause significant error
 Vibrational temperatures:    883.77   962.36   981.83  1061.80  1166.91
          (Kelvin)           1273.50  1309.38  1406.28  1420.68  1615.99
                             1720.70  1975.49  2032.33  4801.15  5167.69

 Zero-point correction=                           0.043987 (Hartree/Particle)
 Thermal correction to Energy=                    0.047634
 Thermal correction to Enthalpy=                  0.048578
 Thermal correction to Gibbs Free Energy=         0.017709
 Sum of electronic and zero-point Energies=           -255.776595
 Sum of electronic and thermal Energies=              -255.772948
 Sum of electronic and thermal Enthalpies=            -255.772003
 Sum of electronic and thermal Free Energies=         -255.802873

                     E (Thermal)             CV                S
                      KCal/Mol        Cal/Mol-Kelvin    Cal/Mol-Kelvin
 Total                   29.891             12.594             64.970
 Electronic               0.000              0.000              0.000
 Translational            0.889              2.981             38.656
 Rotational               0.889              2.981             24.134
 Vibrational             28.113              6.633              2.180
 Vibration     1          0.974              1.002              0.426

 Optimization completed.
    -- Stationary point found.
 Normal termination of Gaussian 09 at Tue Nov 26 04:03:56 2013.
