 Gaussian 09, Revision D.01,
 Gaussian 09:  EM64L-G09RevD.01 24-Apr-2013

 ------------------------------------
 #MP2/6-31G opt=z-matrix freq density
 ------------------------------------

 -----------------------------------------------------------------
 1H-tetrazole CH2N4 casno=288948 state=1 config=1 method=3 basis=9
 -----------------------------------------------------------------
 Symbolic Z-matrix:
 Charge =  0 Multiplicity = 1

 SCF Done:  E(RHF) =  -256.588556245     A.U. after   15 cycles
 E2 =    -0.5280571919D+00 EUMP2 =    -0.25711661343668D+03
 SCF Done:  E(RHF) =  -256.583076556     A.U. after   15 cycles
 E2 =    -0.5586635828D+00 EUMP2 =    -0.25714174013897D+03
 SCF Done:  E(RHF) =  -256.573445207     A.U. after   14 cycles
 E2 =    -0.5701858021D+00 EUMP2 =    -0.25714363100921D+03
 SCF Done:  E(RHF) =  -256.572842085     A.U. after   14 cycles
 E2 =    -0.5710500873D+00 EUMP2 =    -0.25714389217194D+03
 SCF Done:  E(RHF) =  -256.571781410     A.U. after   13 cycles
 E2 =    -0.5723888772D+00 EUMP2 =    -0.25714417028701D+03
 SCF Done:  E(RHF) =  -256.571756969     A.U. after   12 cycles
 E2 =    -0.5724418386D+00 EUMP2 =    -0.25714419880762D+03
 SCF Done:  E(RHF) =  -256.573078525     A.U. after   14 cycles
 E2 =    -0.5706096463D+00 EUMP2 =    -0.25714368817132D+03
 SCF Done:  E(RHF) =  -256.571478973     A.U. after   11 cycles
 E2 =    -0.5727343801D+00 EUMP2 =    -0.25714421335272D+03
 SCF Done:  E(RHF) =  -256.571535909     A.U. after   11 cycles
 E2 =    -0.5726808287D+00 EUMP2 =    -0.25714421673795D+03
 SCF Done:  E(RHF) =  -256.572966986     A.U. after   14 cycles
 E2 =    -0.5706521607D+00 EUMP2 =    -0.25714361914678D+03
 SCF Done:  E(RHF) =  -256.571382594     A.U. after   11 cycles
 E2 =    -0.5728349891D+00 EUMP2 =    -0.25714421758356D+03
 SCF Done:  E(RHF) =  -256.571450093     A.U. after    9 cycles
 E2 =    -0.5727682704D+00 EUMP2 =    -0.25714421836381D+03
 SCF Done:  E(RHF) =  -256.571491811     A.U. after   11 cycles
 E2 =    -0.5727265935D+00 EUMP2 =    -0.25714421840403D+03
 SCF Done:  E(RHF) =  -256.571471833     A.U. after    9 cycles
 E2 =    -0.5727466745D+00 EUMP2 =    -0.25714421850717D+03
 SCF Done:  E(RHF) =  -256.571509438     A.U. after   12 cycles
 E2 =    -0.5726604402D+00 EUMP2 =    -0.25714416987829D+03
 SCF Done:  E(RHF) =  -256.571465770     A.U. after    8 cycles
 E2 =    -0.5727527517D+00 EUMP2 =    -0.25714421852171D+03
 SCF Done:  E(RHF) =  -256.571298266     A.U. after   13 cycles
 E2 =    -0.5729137313D+00 EUMP2 =    -0.25714421199725D+03
 SCF Done:  E(RHF) =  -256.571460091     A.U. after    8 cycles
 E2 =    -0.5727584329D+00 EUMP2 =    -0.25714421852358D+03
 SCF Done:  E(RHF) =  -256.571469891     A.U. after    8 cycles
 E2 =    -0.5727486371D+00 EUMP2 =    -0.25714421852824D+03
 Optimization completed.
    -- Stationary point found.
 Normal termination of Gaussian 09 at Tue Nov 26 04:04:32 2013.

 -------------------------------------------------------------------
 #N Geom=AllCheck Guess=TCheck SCRF=Check GenChk RMP2(FC)/6-31G Freq
 -------------------------------------------------------------------

 Structure from the checkpoint file:  "/tmp/rdj3/g09-26531/Gau-1379.chk"
 -----------------------------------------------------------------
 1H-tetrazole CH2N4 casno=288948 state=1 config=1 method=3 basis=9
 -----------------------------------------------------------------
 Charge =  0 Multiplicity = 1

                         Standard orientation:
 ---------------------------------------------------------------------
 Center     Atomic      Atomic             Coordinates (Angstroms)
 Number     Number       Type             X           Y           Z
 ---------------------------------------------------------------------
      1          6           0        1.095640    0.260144    0.000000
      2          7           0        0.000000    1.085993    0.000000
      3          7           0       -1.172012    0.318176    0.000000
      4          7           0       -0.747880   -0.982801    0.000000
      5          7           0        0.686261   -1.028560    0.000000
      6          1           0        2.121819    0.593549    0.000000
      7          1           0       -0.060240    2.095930    0.000000
 ---------------------------------------------------------------------

 SCF Done:  E(RHF) =  -256.571469891     A.U. after    1 cycles
 E2 =    -0.5727486347D+00 EUMP2 =    -0.25714421852576D+03
 E2 =    -0.5727486347D+00 EUMP2 =    -0.25714421852576D+03

 The electronic state is 1-A'.
 Alpha  occ. eigenvalues --  -15.70834 -15.70560 -15.69082 -15.64765 -11.37536
 Alpha  occ. eigenvalues --   -1.48493  -1.25874  -1.20614  -0.91441  -0.89074
 Alpha  occ. eigenvalues --   -0.80278  -0.67065  -0.66553  -0.56340  -0.49358
 Alpha  occ. eigenvalues --   -0.47919  -0.45891  -0.42564
 Alpha virt. eigenvalues --    0.09472   0.14703   0.18772   0.23269   0.32253
 Alpha virt. eigenvalues --    0.33467   0.39381   0.46815   0.57453   0.73593
 Alpha virt. eigenvalues --    0.75915   0.83132   0.88090   0.89431   0.91724

 Mulliken charges:
               1
     1  C    0.259604
     2  N   -0.546631
     3  N    0.015116
     4  N   -0.096955
     5  N   -0.269019
     6  H    0.240219
     7  H    0.397666
 Sum of Mulliken charges =   0.00000

 Dipole moment (field-independent basis, Debye):
    X=              2.7315    Y=              5.2880    Z=              0.0000  Tot=              5.9518
 Quadrupole moment (field-independent basis, Debye-Ang):
   XX=            -30.7009   YY=            -27.8996   ZZ=            -29.3876
   XY=              2.0567   XZ=              0.0000   YZ=              0.0000

  Exact polarizability:  38.515   1.763  37.244   0.000   0.000  13.858
 Approx polarizability:  40.486  -0.500  44.092   0.000   0.000  11.760

                      1                      2                      3
                     A"                     A"                     A"
 Frequencies --    638.0910               685.7754               704.7469
 Red. masses --      5.0608                 4.8518                 1.2857
 Frc consts  --      1.2140                 1.3444                 0.3762
 IR Inten    --     40.9896                 8.4902                97.2528

                      4                      5                      6
                     A'                     A"                     A'
 Frequencies --    768.1653               804.7933               899.9934
 Red. masses --     10.4024                 1.3252                 7.8716
 Frc consts  --      3.6166                 0.5057                 3.7566
 IR Inten    --     13.5150                45.9004                15.9253

                      7                      8                      9
                     A'                     A'                     A'
 Frequencies --    947.4554               991.3008              1015.1070
 Red. masses --      5.3102                 9.0126                 8.0605
 Frc consts  --      2.8086                 5.2181                 4.8937
 IR Inten    --      8.4179                 2.6127                 1.6828

                     10                     11                     12
                     A'                     A'                     A'
 Frequencies --   1153.8492              1202.1588              1406.4677
 Red. masses --      1.8586                 2.4371                 3.1368
 Frc consts  --      1.4579                 2.0751                 3.6560
 IR Inten    --     11.9202                 9.4210                 4.8652

                     13                     14                     15
                     A'                     A'                     A'
 Frequencies --   1454.1842              3348.8421              3683.0146
 Red. masses --      1.6523                 1.1014                 1.0850
 Frc consts  --      2.0586                 7.2776                 8.6712
 IR Inten    --     51.2438                 3.3817               121.4083

 - Thermochemistry -
 -------------------
 Temperature   298.150 Kelvin.  Pressure   1.00000 Atm.
 Atom     1 has atomic number  6 and mass  12.00000

 Molecular mass:    70.02795 amu.
 Principal axes and moments of inertia in atomic units:
                           1         2         3
     Eigenvalues --   184.42756 188.08142 372.50897
           X            0.93945   0.34268   0.00000
           Y           -0.34268   0.93945   0.00000
           Z            0.00000   0.00000   1.00000
 This molecule is an asymmetric top.
 Rotational symmetry number  1.
 Rotational temperatures (Kelvin)      0.46964     0.46051     0.23251
 Rotational constants (GHZ):           9.78564     9.59553     4.84483
 Zero-point vibrational energy     117855.8 (Joules/Mol)
                                   28.16820 (Kcal/Mol)
 Vibrational temperatures:    918.07   986.68  1013.97  1105.22  1157.92
          (Kelvin)           1294.89  1363.18  1426.26  1460.51  1660.13
                             1729.64  2023.59  2092.24  4818.23  5299.03

 Zero-point correction=                           0.044889 (Hartree/Particle)
 Thermal correction to Energy=                    0.048478
 Thermal correction to Enthalpy=                  0.049422
 Thermal correction to Gibbs Free Energy=         0.018661
 Sum of electronic and zero-point Energies=           -257.099330
 Sum of electronic and thermal Energies=              -257.095741
 Sum of electronic and thermal Enthalpies=            -257.094796
 Sum of electronic and thermal Free Energies=         -257.125558

                     E (Thermal)             CV                S
                      KCal/Mol        Cal/Mol-Kelvin    Cal/Mol-Kelvin
 Total                   30.420             12.256             64.742
 Electronic               0.000              0.000              0.000
 Translational            0.889              2.981             38.656
 Rotational               0.889              2.981             24.073
 Vibrational             28.643              6.295              2.014

 Optimization completed.
    -- Stationary point found.
 Normal termination of Gaussian 09 at Tue Nov 26 04:04:41 2013.
