 Gaussian 09, Revision D.01,
 Gaussian 09:  EM64L-G09RevD.01 24-Apr-2013

 ---------------------------------
 #MP4=FULL/3-21G opt=z-matrix freq
 ---------------------------------

 ------------------------------------------------------------------
 1H-tetrazole CH2N4 casno=288948 state=1 config=1 method=44 basis=2
 ------------------------------------------------------------------
 Symbolic Z-matrix:
 Charge =  0 Multiplicity = 1

 SCF Done:  E(RHF) =  -255.261114440     A.U. after   14 cycles
 E2 =    -0.5329911075D+00 EUMP2 =    -0.25579410554770D+03
 SCF Done:  E(RHF) =  -255.261128885     A.U. after    8 cycles
 E2 =    -0.5330068344D+00 EUMP2 =    -0.25579413571958D+03
 SCF Done:  E(RHF) =  -255.261099883     A.U. after    9 cycles
 E2 =    -0.5329753894D+00 EUMP2 =    -0.25579407527288D+03
 SCF Done:  E(RHF) =  -255.261136464     A.U. after    8 cycles
 E2 =    -0.5330166294D+00 EUMP2 =    -0.25579415309314D+03
 SCF Done:  E(RHF) =  -255.261092306     A.U. after    9 cycles
 E2 =    -0.5329655923D+00 EUMP2 =    -0.25579405789833D+03
 SCF Done:  E(RHF) =  -255.261139226     A.U. after    8 cycles
 E2 =    -0.5330104617D+00 EUMP2 =    -0.25579414968758D+03
 SCF Done:  E(RHF) =  -255.261089551     A.U. after    9 cycles
 E2 =    -0.5329717607D+00 EUMP2 =    -0.25579406131143D+03
 SCF Done:  E(RHF) =  -255.261128890     A.U. after    8 cycles
 E2 =    -0.5330126945D+00 EUMP2 =    -0.25579414158439D+03
 SCF Done:  E(RHF) =  -255.261099888     A.U. after    9 cycles
 E2 =    -0.5329695346D+00 EUMP2 =    -0.25579406942252D+03
 SCF Done:  E(RHF) =  -255.261111892     A.U. after    9 cycles
 E2 =    -0.5329952946D+00 EUMP2 =    -0.25579410718639D+03
 E2 =    -0.5329869249D+00 EUMP2 =    -0.25579410384945D+03
 E2 =    -0.5329974228D+00 EUMP2 =    -0.25579411164279D+03
 E2 =    -0.5329847856D+00 EUMP2 =    -0.25579409936386D+03
 E2 =    -0.5329824272D+00 EUMP2 =    -0.25579407010058D+03
 E2 =    -0.5329997783D+00 EUMP2 =    -0.25579414052173D+03
 E2 =    -0.5329666223D+00 EUMP2 =    -0.25579408093828D+03
 E2 =    -0.5330155756D+00 EUMP2 =    -0.25579412958034D+03
 E2 =    -0.5330240849D+00 EUMP2 =    -0.25579415020199D+03
 E2 =    -0.5329581246D+00 EUMP2 =    -0.25579406045584D+03
 E2 =    -0.5329859591D+00 EUMP2 =    -0.25579411680416D+03
 Normal termination of Gaussian 09 at Tue Nov 26 16:25:47 2013.

 ----------------------------------------------------------------------
 #N Geom=AllCheck Guess=TCheck SCRF=Check GenChk RMP4SDTQ-Full/3-21G Fr
 eq
 ----------------------------------------------------------------------

 Structure from the checkpoint file:  "/tmp/rdj3/g09-13184/Gau-11014.chk"
 ------------------------------------------------------------------
 1H-tetrazole CH2N4 casno=288948 state=1 config=1 method=44 basis=2
 ------------------------------------------------------------------
 Charge =  0 Multiplicity = 1

                         Standard orientation:
 ---------------------------------------------------------------------
 Center     Atomic      Atomic             Coordinates (Angstroms)
 Number     Number       Type             X           Y           Z
 ---------------------------------------------------------------------
      1          6           0        1.090171    0.267587    0.000000
      2          7           0        0.000000    1.106999    0.000000
      3          7           0       -1.199045    0.296242    0.000000
      4          7           0       -0.760051   -0.996565    0.000000
      5          7           0        0.732284   -1.027696    0.000000
      6          1           0        2.110721    0.620706    0.000000
      7          1           0       -0.064069    2.120905    0.000000
 ---------------------------------------------------------------------

 E2 =    -0.5783302799D+00 EUMP2 =    -0.25582885211297D+03
 E2 =    -0.5781215779D+00 EUMP2 =    -0.25582864227666D+03
 E2 =    -0.5770025639D+00 EUMP2 =    -0.25582857725477D+03
 E2 =    -0.5794616036D+00 EUMP2 =    -0.25582888347609D+03
 E2 =    -0.5791170754D+00 EUMP2 =    -0.25582863709526D+03
 E2 =    -0.5773358634D+00 EUMP2 =    -0.25582886542465D+03
 E2 =    -0.5775359103D+00 EUMP2 =    -0.25582872427772D+03
 E2 =    -0.5789161172D+00 EUMP2 =    -0.25582868036857D+03
 E2 =    -0.5787354841D+00 EUMP2 =    -0.25582865008115D+03
 E2 =    -0.5777100997D+00 EUMP2 =    -0.25582880731804D+03
 SCF Done:  E(RHF) =  -255.250106191     A.U. after   12 cycles
 E2 =    -0.5786272379D+00 EUMP2 =    -0.25582873342925D+03
 SCF Done:  E(RHF) =  -255.250996630     A.U. after   12 cycles
 E2 =    -0.5778201539D+00 EUMP2 =    -0.25582881678440D+03
 SCF Done:  E(RHF) =  -255.250228144     A.U. after   12 cycles
 E2 =    -0.5785335139D+00 EUMP2 =    -0.25582876165764D+03
 SCF Done:  E(RHF) =  -255.250901598     A.U. after   12 cycles
 E2 =    -0.5779171053D+00 EUMP2 =    -0.25582881870360D+03
 SCF Done:  E(RHF) =  -255.250610430     A.U. after   11 cycles
 E2 =    -0.5782351321D+00 EUMP2 =    -0.25582884556199D+03
 SCF Done:  E(RHF) =  -255.250629977     A.U. after   12 cycles
 E2 =    -0.5782259900D+00 EUMP2 =    -0.25582885596674D+03
 SCF Done:  E(RHF) =  -255.250625022     A.U. after   12 cycles
 E2 =    -0.5782308921D+00 EUMP2 =    -0.25582885591420D+03
 SCF Done:  E(RHF) =  -255.250618793     A.U. after   12 cycles
 E2 =    -0.5782299951D+00 EUMP2 =    -0.25582884878772D+03
 SCF Done:  E(RHF) =  -255.250620281     A.U. after   12 cycles
 E2 =    -0.5782292398D+00 EUMP2 =    -0.25582884952096D+03
 SCF Done:  E(RHF) =  -255.250640300     A.U. after   10 cycles
 E2 =    -0.5782241876D+00 EUMP2 =    -0.25582886448755D+03

 Alpha  occ. eigenvalues --  -15.62689 -15.61713 -15.60898 -15.55857 -11.31141
 Alpha  occ. eigenvalues --   -1.44860  -1.22782  -1.19695  -0.89248  -0.87143
 Alpha  occ. eigenvalues --   -0.79038  -0.64718  -0.64693  -0.55333  -0.48719
 Alpha  occ. eigenvalues --   -0.46288  -0.44389  -0.42341
 Alpha virt. eigenvalues --    0.10812   0.16213   0.22852   0.24947   0.32632
 Alpha virt. eigenvalues --    0.36329   0.42975   0.53654   0.59301   0.91824
 Alpha virt. eigenvalues --    0.93920   1.04254   1.09107   1.20431   1.31585

 Mulliken charges:
               1
     1  C    0.402625
     2  N   -0.666850
     3  N   -0.014526
     4  N   -0.064245
     5  N   -0.389335
     6  H    0.314175
     7  H    0.418156
 Sum of Mulliken charges =   0.00000

 Dipole moment (field-independent basis, Debye):
    X=              2.7383    Y=              5.1417    Z=              0.0310  Tot=              5.8255
 Quadrupole moment (field-independent basis, Debye-Ang):
   XX=            -29.2763   YY=            -27.2852   ZZ=            -29.4264
   XY=              2.5258   XZ=              0.0223   YZ=              0.0561

                      1                      2                      3
                     A"                     A"                     A"
 Frequencies --    566.5703               650.2166               656.9101
 Red. masses --      2.0493                 1.6884                 8.3486
 Frc consts  --      0.3876                 0.4206                 2.1226
 IR Inten    --      0.0000                 0.0000                 0.0000

                      4                      5                      6
                     A'                     A'                     A"
 Frequencies --    685.8049               807.4921               876.0105
 Red. masses --     11.0779                 6.7752                 1.3531
 Frc consts  --      3.0698                 2.6028                 0.6118
 IR Inten    --      0.0000                 0.0000                 0.0000

                      7                      8                      9
                     A'                     A'                     A'
 Frequencies --    886.4443               963.5006               970.0594
 Red. masses --      5.9609                 9.8348                 7.9818
 Frc consts  --      2.7597                 5.3792                 4.4254
 IR Inten    --      0.0000                 0.0000                 0.0000

                     10                     11                     12
                     A'                     A'                     A'
 Frequencies --   1099.3535              1175.9592              1329.2806
 Red. masses --      2.4202                 2.2674                 2.1298
 Frc consts  --      1.7233                 1.8474                 2.2173
 IR Inten    --      0.0000                 0.0000                 0.0000

                     13                     14                     15
                     A'                     A'                     A'
 Frequencies --   1394.8873              3280.6964              3564.3765
 Red. masses --      1.7828                 1.0981                 1.0846
 Frc consts  --      2.0438                 6.9632                 8.1185
 IR Inten    --      0.0000                 0.0000                 0.0000

 - Thermochemistry -
 -------------------
 Temperature   298.150 Kelvin.  Pressure   1.00000 Atm.
 Atom     1 has atomic number  6 and mass  12.00000

 Molecular mass:    70.02795 amu.
 Principal axes and moments of inertia in atomic units:
                           1         2         3
     Eigenvalues --   188.22358 194.55139 382.77498
           X            0.98504   0.17232   0.00000
           Y           -0.17232   0.98504   0.00000
           Z            0.00000   0.00000   1.00000
 This molecule is an asymmetric top.
 Rotational symmetry number  1.
 Rotational temperatures (Kelvin)      0.46016     0.44520     0.22628
 Rotational constants (GHZ):           9.58828     9.27642     4.71489
 Zero-point vibrational energy     113092.3 (Joules/Mol)
                                   27.02972 (Kcal/Mol)
 Warning -- explicit consideration of   1 degrees of freedom as
           vibrations may cause significant error
 Vibrational temperatures:    815.17   935.52   945.15   986.72  1161.80
          (Kelvin)           1260.38  1275.39  1386.26  1395.70  1581.72
                             1691.94  1912.54  2006.93  4720.18  5128.34

 Zero-point correction=                           0.043075 (Hartree/Particle)
 Thermal correction to Energy=                    0.046807
 Thermal correction to Enthalpy=                  0.047752
 Thermal correction to Gibbs Free Energy=         0.016753
 Sum of electronic and zero-point Energies=           -255.821136
 Sum of electronic and thermal Energies=              -255.817404
 Sum of electronic and thermal Enthalpies=            -255.816459
 Sum of electronic and thermal Free Energies=         -255.847458

                     E (Thermal)             CV                S
                      KCal/Mol        Cal/Mol-Kelvin    Cal/Mol-Kelvin
 Total                   29.372             13.028             65.243
 Electronic               0.000              0.000              0.000
 Translational            0.889              2.981             38.656
 Rotational               0.889              2.981             24.153
 Vibrational             27.595              7.066              2.433
 Vibration     1          0.922              1.104              0.511

 Normal termination of Gaussian 09 at Tue Nov 26 16:44:26 2013.
