 Gaussian 09, Revision D.01,
 Gaussian 09:  EM64L-G09RevD.01 24-Apr-2013

 ----------------------------------
 #MP4=FULL/6-31G* opt=z-matrix freq
 ----------------------------------

 ------------------------------------------------------------------
 1H-tetrazole CH2N4 casno=288948 state=1 config=1 method=44 basis=1
 ------------------------------------------------------------------
 Symbolic Z-matrix:
 Charge =  0 Multiplicity = 1

 SCF Done:  E(RHF) =  -256.743476872     A.U. after   15 cycles
 E2 =    -0.8105598732D+00 EUMP2 =    -0.25755403674503D+03
 SCF Done:  E(RHF) =  -256.743461529     A.U. after    8 cycles
 E2 =    -0.8105711046D+00 EUMP2 =    -0.25755403263390D+03
 SCF Done:  E(RHF) =  -256.743492117     A.U. after    9 cycles
 E2 =    -0.8105486495D+00 EUMP2 =    -0.25755404076677D+03
 SCF Done:  E(RHF) =  -256.743448562     A.U. after    8 cycles
 E2 =    -0.8105864477D+00 EUMP2 =    -0.25755403500990D+03
 SCF Done:  E(RHF) =  -256.743505088     A.U. after    9 cycles
 E2 =    -0.8105332960D+00 EUMP2 =    -0.25755403838387D+03
 SCF Done:  E(RHF) =  -256.743454491     A.U. after    7 cycles
 E2 =    -0.8105801859D+00 EUMP2 =    -0.25755403467670D+03
 SCF Done:  E(RHF) =  -256.743499161     A.U. after    9 cycles
 E2 =    -0.8105395749D+00 EUMP2 =    -0.25755403873610D+03
 SCF Done:  E(RHF) =  -256.743455364     A.U. after    8 cycles
 E2 =    -0.8105779926D+00 EUMP2 =    -0.25755403335700D+03
 SCF Done:  E(RHF) =  -256.743498287     A.U. after    9 cycles
 E2 =    -0.8105417700D+00 EUMP2 =    -0.25755404005691D+03
 SCF Done:  E(RHF) =  -256.743472135     A.U. after    9 cycles
 E2 =    -0.8105635516D+00 EUMP2 =    -0.25755403568628D+03
 E2 =    -0.8105562036D+00 EUMP2 =    -0.25755403775158D+03
 E2 =    -0.8105672751D+00 EUMP2 =    -0.25755403628671D+03
 E2 =    -0.8105524599D+00 EUMP2 =    -0.25755403711781D+03
 E2 =    -0.8105532084D+00 EUMP2 =    -0.25755404084834D+03
 E2 =    -0.8105665068D+00 EUMP2 =    -0.25755403222914D+03
 E2 =    -0.8105192974D+00 EUMP2 =    -0.25755402550633D+03
 E2 =    -0.8106004093D+00 EUMP2 =    -0.25755404753016D+03
 E2 =    -0.8106048543D+00 EUMP2 =    -0.25755404411641D+03
 E2 =    -0.8105148806D+00 EUMP2 =    -0.25755402905987D+03
 E2 =    -0.8105557016D+00 EUMP2 =    -0.25755403350798D+03
 Normal termination of Gaussian 09 at Tue Jan 14 17:36:46 2014.

 ----------------------------------------------------------------------
 #N Geom=AllCheck Guess=TCheck SCRF=Check GenChk RMP4SDTQ-Full/6-31G(d)
  Freq
 ----------------------------------------------------------------------

 Structure from the checkpoint file:  "/tmp/rdj3/g09-7726/Gau-7782.chk"
 ------------------------------------------------------------------
 1H-tetrazole CH2N4 casno=288948 state=1 config=1 method=44 basis=1
 ------------------------------------------------------------------
 Charge =  0 Multiplicity = 1

                         Standard orientation:
 ---------------------------------------------------------------------
 Center     Atomic      Atomic             Coordinates (Angstroms)
 Number     Number       Type             X           Y           Z
 ---------------------------------------------------------------------
      1          6           0        1.073148    0.240547    0.000000
      2          7           0        0.000000    1.061784    0.000000
      3          7           0       -1.132739    0.307717    0.000000
      4          7           0       -0.726814   -0.938902    0.000000
      5          7           0        0.648201   -1.014878    0.000000
      6          1           0        2.103876    0.571839    0.000000
      7          1           0       -0.063298    2.074838    0.000000
 ---------------------------------------------------------------------

 E2 =    -0.8101928576D+00 EUMP2 =    -0.25755409936112D+03
 E2 =    -0.8097271390D+00 EUMP2 =    -0.25755380175323D+03
 E2 =    -0.8089484203D+00 EUMP2 =    -0.25755382393719D+03
 E2 =    -0.8109825419D+00 EUMP2 =    -0.25755403057162D+03
 E2 =    -0.8106526574D+00 EUMP2 =    -0.25755380119227D+03
 E2 =    -0.8092680945D+00 EUMP2 =    -0.25755411090175D+03
 E2 =    -0.8095095696D+00 EUMP2 =    -0.25755396418425D+03
 E2 =    -0.8104153918D+00 EUMP2 =    -0.25755386661041D+03
 E2 =    -0.8104778438D+00 EUMP2 =    -0.25755390019970D+03
 E2 =    -0.8094376487D+00 EUMP2 =    -0.25755401991382D+03
 SCF Done:  E(RHF) =  -256.743609970     A.U. after   11 cycles
 E2 =    -0.8103699091D+00 EUMP2 =    -0.25755397987945D+03
 SCF Done:  E(RHF) =  -256.744491272     A.U. after   11 cycles
 E2 =    -0.8095461102D+00 EUMP2 =    -0.25755403738193D+03
 SCF Done:  E(RHF) =  -256.743725744     A.U. after   11 cycles
 E2 =    -0.8102740818D+00 EUMP2 =    -0.25755399982599D+03
 SCF Done:  E(RHF) =  -256.744398621     A.U. after   11 cycles
 E2 =    -0.8096462739D+00 EUMP2 =    -0.25755404489510D+03
 SCF Done:  E(RHF) =  -256.744116979     A.U. after   10 cycles
 E2 =    -0.8099685209D+00 EUMP2 =    -0.25755408549996D+03
 SCF Done:  E(RHF) =  -256.744131462     A.U. after   11 cycles
 E2 =    -0.8099595921D+00 EUMP2 =    -0.25755409105384D+03
 SCF Done:  E(RHF) =  -256.744124357     A.U. after   10 cycles
 E2 =    -0.8099651876D+00 EUMP2 =    -0.25755408954455D+03
 SCF Done:  E(RHF) =  -256.744115150     A.U. after   11 cycles
 E2 =    -0.8099652078D+00 EUMP2 =    -0.25755408035773D+03
 SCF Done:  E(RHF) =  -256.744119316     A.U. after   11 cycles
 E2 =    -0.8099635317D+00 EUMP2 =    -0.25755408284812D+03
 SCF Done:  E(RHF) =  -256.744142902     A.U. after   10 cycles
 E2 =    -0.8099583205D+00 EUMP2 =    -0.25755410122236D+03

 Alpha  occ. eigenvalues --  -15.69152 -15.67296 -15.65615 -15.61264 -11.34602
 Alpha  occ. eigenvalues --   -1.48052  -1.24976  -1.18849  -0.90378  -0.88459
 Alpha  occ. eigenvalues --   -0.79465  -0.67146  -0.66727  -0.56551  -0.47898
 Alpha  occ. eigenvalues --   -0.47275  -0.45102  -0.41429
 Alpha virt. eigenvalues --    0.13346   0.18259   0.19519   0.24883   0.36331
 Alpha virt. eigenvalues --    0.37309   0.46505   0.49513   0.63493   0.73455
 Alpha virt. eigenvalues --    0.74012   0.82279   0.82422   0.88892   0.91274

 Mulliken charges:
               1
     1  C    0.305690
     2  N   -0.549318
     3  N   -0.030311
     4  N   -0.064684
     5  N   -0.357105
     6  H    0.260585
     7  H    0.435143
 Sum of Mulliken charges =   0.00000

 Dipole moment (field-independent basis, Debye):
    X=              2.7396    Y=              5.0247    Z=              0.0268  Tot=              5.7231
 Quadrupole moment (field-independent basis, Debye-Ang):
   XX=            -28.6954   YY=            -26.5039   ZZ=            -28.9854
   XY=              2.1427   XZ=              0.0195   YZ=              0.0494

                      1                      2                      3
                     A"                     A"                     A"
 Frequencies --    559.8037               683.9046               724.6128
 Red. masses --      1.8956                 1.9969                 7.1454
 Frc consts  --      0.3500                 0.5503                 2.2105
 IR Inten    --      0.0000                 0.0000                 0.0000

                      4                      5                      6
                     A"                     A'                     A'
 Frequencies --    818.9103               949.8529               998.9265
 Red. masses --      1.3130                 5.3564                 6.2789
 Frc consts  --      0.5188                 2.8473                 3.6915
 IR Inten    --      0.0000                 0.0000                 0.0000

                      7                      8                      9
                     A'                     A'                     A'
 Frequencies --   1045.6023              1059.5082              1154.0415
 Red. masses --      7.1647                 3.3304                 1.7984
 Frc consts  --      4.6151                 2.2027                 1.4112
 IR Inten    --      0.0000                 0.0000                 0.0000

                     10                     11                     12
                     A'                     A'                     A'
 Frequencies --   1227.3875              1256.4961              1467.6314
 Red. masses --      8.8187                 2.4825                 3.0157
 Frc consts  --      7.8274                 2.3092                 3.8271
 IR Inten    --      0.0000                 0.0000                 0.0000

                     13                     14                     15
                     A'                     A'                     A'
 Frequencies --   1490.9219              3306.3583              3643.7434
 Red. masses --      3.0769                 1.1008                 1.0842
 Frc consts  --      4.0297                 7.0902                 8.4813
 IR Inten    --      0.0000                 0.0000                 0.0000

 - Thermochemistry -
 -------------------
 Temperature   298.150 Kelvin.  Pressure   1.00000 Atm.
 Atom     1 has atomic number  6 and mass  12.00000

 Molecular mass:    70.02795 amu.
 Principal axes and moments of inertia in atomic units:
                           1         2         3
     Eigenvalues --   174.42308 177.74796 352.17104
           X            0.82302   0.56802   0.00000
           Y           -0.56802   0.82302   0.00000
           Z            0.00000   0.00000   1.00000
 This molecule is an asymmetric top.
 Rotational symmetry number  1.
 Rotational temperatures (Kelvin)      0.49657     0.48728     0.24594
 Rotational constants (GHZ):          10.34692    10.15337     5.12462
 Zero-point vibrational energy     121945.5 (Joules/Mol)
                                   29.14568 (Kcal/Mol)
 Warning -- explicit consideration of   1 degrees of freedom as
           vibrations may cause significant error
 Vibrational temperatures:    805.43   983.98  1042.55  1178.23  1366.62
          (Kelvin)           1437.23  1504.39  1524.39  1660.41  1765.93
                             1807.82  2111.59  2145.10  4757.11  5242.53

 Zero-point correction=                           0.046447 (Hartree/Particle)
 Thermal correction to Energy=                    0.049959
 Thermal correction to Enthalpy=                  0.050903
 Thermal correction to Gibbs Free Energy=         0.020311
 Sum of electronic and zero-point Energies=           -257.555996
 Sum of electronic and thermal Energies=              -257.552483
 Sum of electronic and thermal Enthalpies=            -257.551539
 Sum of electronic and thermal Free Energies=         -257.582132

                     E (Thermal)             CV                S
                      KCal/Mol        Cal/Mol-Kelvin    Cal/Mol-Kelvin
 Total                   31.350             11.560             64.387
 Electronic               0.000              0.000              0.000
 Translational            0.889              2.981             38.656
 Rotational               0.889              2.981             23.905
 Vibrational             29.572              5.598              1.826
 Vibration     1          0.915              1.118              0.524

 Normal termination of Gaussian 09 at Tue Jan 14 19:17:49 2014.
