 Gaussian 09, Revision D.01,
 Gaussian 09:  EM64L-G09RevD.01 24-Apr-2013

 ---------------------------------------
 #MP4=FULL/aug-cc-pVDZ opt=z-matrix freq
 ---------------------------------------

 -------------------------------------------------------------------
 1H-tetrazole CH2N4 casno=288948 state=1 config=1 method=44 basis=17
 -------------------------------------------------------------------
 Symbolic Z-matrix:
 Charge =  0 Multiplicity = 1

 SCF Done:  E(RHF) =  -256.797933873     A.U. after   15 cycles
 E2 =    -0.8215273517D+00 EUMP2 =    -0.25761946122425D+03
 SCF Done:  E(RHF) =  -256.797934875     A.U. after    8 cycles
 E2 =    -0.8215393778D+00 EUMP2 =    -0.25761947425322D+03
 SCF Done:  E(RHF) =  -256.797932761     A.U. after    8 cycles
 E2 =    -0.8215153348D+00 EUMP2 =    -0.25761944809547D+03
 SCF Done:  E(RHF) =  -256.797934335     A.U. after    8 cycles
 E2 =    -0.8215528057D+00 EUMP2 =    -0.25761948714103D+03
 SCF Done:  E(RHF) =  -256.797933293     A.U. after    9 cycles
 E2 =    -0.8215019047D+00 EUMP2 =    -0.25761943519766D+03
 SCF Done:  E(RHF) =  -256.797934844     A.U. after    7 cycles
 E2 =    -0.8215463313D+00 EUMP2 =    -0.25761948117538D+03
 SCF Done:  E(RHF) =  -256.797932793     A.U. after    9 cycles
 E2 =    -0.8215083954D+00 EUMP2 =    -0.25761944118857D+03
 SCF Done:  E(RHF) =  -256.797935688     A.U. after    8 cycles
 E2 =    -0.8215454937D+00 EUMP2 =    -0.25761948118156D+03
 SCF Done:  E(RHF) =  -256.797931949     A.U. after    9 cycles
 E2 =    -0.8215092264D+00 EUMP2 =    -0.25761944117575D+03
 SCF Done:  E(RHF) =  -256.797935594     A.U. after    8 cycles
 E2 =    -0.8215306416D+00 EUMP2 =    -0.25761946623561D+03
 E2 =    -0.8215240724D+00 EUMP2 =    -0.25761945615695D+03
 E2 =    -0.8215341396D+00 EUMP2 =    -0.25761946831421D+03
 E2 =    -0.8215205553D+00 EUMP2 =    -0.25761945404171D+03
 E2 =    -0.8215218024D+00 EUMP2 =    -0.25761945688436D+03
 E2 =    -0.8215328906D+00 EUMP2 =    -0.25761946507152D+03
 E2 =    -0.8214932247D+00 EUMP2 =    -0.25761942490939D+03
 E2 =    -0.8215614643D+00 EUMP2 =    -0.25761949691994D+03
 E2 =    -0.8215684807D+00 EUMP2 =    -0.25761950304964D+03
 E2 =    -0.8214862181D+00 EUMP2 =    -0.25761941892739D+03
 E2 =    -0.8215187887D+00 EUMP2 =    -0.25761945100080D+03
 Normal termination of Gaussian 09 at Mon Nov 25 22:08:38 2013.

 ----------------------------------------------------------------------
 #N Geom=AllCheck Guess=TCheck SCRF=Check GenChk RMP4SDTQ-Full/Aug-CC-p
 VDZ Freq
 ----------------------------------------------------------------------

 Structure from the checkpoint file:  "/tmp/rdj3/g09-13184/Gau-13240.chk"
 -------------------------------------------------------------------
 1H-tetrazole CH2N4 casno=288948 state=1 config=1 method=44 basis=17
 -------------------------------------------------------------------
 Charge =  0 Multiplicity = 1

                         Standard orientation:
 ---------------------------------------------------------------------
 Center     Atomic      Atomic             Coordinates (Angstroms)
 Number     Number       Type             X           Y           Z
 ---------------------------------------------------------------------
      1          6           0        1.078768    0.240893    0.000000
      2          7           0        0.000000    1.066344    0.000000
      3          7           0       -1.135949    0.311627    0.000000
      4          7           0       -0.730968   -0.941416    0.000000
      5          7           0        0.648736   -1.022155    0.000000
      6          1           0        2.114150    0.574447    0.000000
      7          1           0       -0.059488    2.079390    0.000000
 ---------------------------------------------------------------------

 E2 =    -0.8424914631D+00 EUMP2 =    -0.25762867735811D+03
 E2 =    -0.8421226015D+00 EUMP2 =    -0.25762834764744D+03
 E2 =    -0.8412120790D+00 EUMP2 =    -0.25762838889469D+03
 E2 =    -0.8434138804D+00 EUMP2 =    -0.25762859122570D+03
 E2 =    -0.8429836632D+00 EUMP2 =    -0.25762836174149D+03
 E2 =    -0.8416315510D+00 EUMP2 =    -0.25762867466697D+03
 E2 =    -0.8417515355D+00 EUMP2 =    -0.25762854039590D+03
 E2 =    -0.8428652963D+00 EUMP2 =    -0.25762841537076D+03
 E2 =    -0.8427958830D+00 EUMP2 =    -0.25762847362242D+03
 E2 =    -0.8418108947D+00 EUMP2 =    -0.25762856471544D+03
 SCF Done:  E(RHF) =  -256.785848010     A.U. after   11 cycles
 E2 =    -0.8427013891D+00 EUMP2 =    -0.25762854939886D+03
 SCF Done:  E(RHF) =  -256.786678258     A.U. after   11 cycles
 E2 =    -0.8419076591D+00 EUMP2 =    -0.25762858591693D+03
 SCF Done:  E(RHF) =  -256.785960871     A.U. after   11 cycles
 E2 =    -0.8426069020D+00 EUMP2 =    -0.25762856777329D+03
 SCF Done:  E(RHF) =  -256.786587300     A.U. after   11 cycles
 E2 =    -0.8420061111D+00 EUMP2 =    -0.25762859341128D+03
 SCF Done:  E(RHF) =  -256.786329401     A.U. after   10 cycles
 E2 =    -0.8423141241D+00 EUMP2 =    -0.25762864352477D+03
 SCF Done:  E(RHF) =  -256.786343328     A.U. after   10 cycles
 E2 =    -0.8423060500D+00 EUMP2 =    -0.25762864937814D+03
 SCF Done:  E(RHF) =  -256.786336468     A.U. after   10 cycles
 E2 =    -0.8423117001D+00 EUMP2 =    -0.25762864816827D+03
 SCF Done:  E(RHF) =  -256.786327623     A.U. after   10 cycles
 E2 =    -0.8423119578D+00 EUMP2 =    -0.25762863958028D+03
 SCF Done:  E(RHF) =  -256.786331673     A.U. after   11 cycles
 E2 =    -0.8423100718D+00 EUMP2 =    -0.25762864174457D+03
 SCF Done:  E(RHF) =  -256.786355240     A.U. after    9 cycles
 E2 =    -0.8423045677D+00 EUMP2 =    -0.25762865980766D+03

 Alpha  occ. eigenvalues --  -15.69385 -15.67931 -15.66518 -15.62198 -11.35460
 Alpha  occ. eigenvalues --   -1.47962  -1.25214  -1.18948  -0.90681  -0.88674
 Alpha  occ. eigenvalues --   -0.79410  -0.67295  -0.66704  -0.56900  -0.48487
 Alpha  occ. eigenvalues --   -0.47891  -0.45323  -0.41566
 Alpha virt. eigenvalues --    0.01917   0.04131   0.08072   0.08637   0.10915
 Alpha virt. eigenvalues --    0.11919   0.12677   0.14271   0.15599   0.15802
 Alpha virt. eigenvalues --    0.16664   0.17948   0.19769   0.19887   0.21470

 Mulliken charges:
               1
     1  C    1.126491
     2  N   -0.221979
     3  N   -0.166601
     4  N   -0.235550
     5  N   -0.466223
     6  H   -0.059953
     7  H    0.023815
 Sum of Mulliken charges =   0.00000

 Dipole moment (field-independent basis, Debye):
    X=              2.6994    Y=              4.9244    Z=              0.0255  Tot=              5.6158
 Quadrupole moment (field-independent basis, Debye-Ang):
   XX=            -28.8975   YY=            -26.7226   ZZ=            -29.6066
   XY=              2.1780   XZ=              0.0208   YZ=              0.0470

                      1                      2                      3
                     A"                     A"                     A"
 Frequencies --    554.1280               674.4263               711.6973
 Red. masses --      1.8138                 1.9996                 7.6271
 Frc consts  --      0.3281                 0.5359                 2.2761
 IR Inten    --      0.0000                 0.0000                 0.0000

                      4                      5                      6
                     A"                     A'                     A'
 Frequencies --    813.3177               925.5098               980.7878
 Red. masses --      1.3377                 4.9646                 6.3196
 Frc consts  --      0.5214                 2.5055                 3.5817
 IR Inten    --      0.0000                 0.0000                 0.0000

                      7                      8                      9
                     A'                     A'                     A'
 Frequencies --   1020.5428              1038.3637              1121.7120
 Red. masses --      6.0850                 3.3123                 1.8674
 Frc consts  --      3.7340                 2.1042                 1.3844
 IR Inten    --      0.0000                 0.0000                 0.0000

                     10                     11                     12
                     A'                     A'                     A'
 Frequencies --   1193.9654              1224.2205              1440.2956
 Red. masses --      8.6192                 2.6390                 3.5879
 Frc consts  --      7.2393                 2.3303                 4.3853
 IR Inten    --      0.0000                 0.0000                 0.0000

                     13                     14                     15
                     A'                     A'                     A'
 Frequencies --   1458.4689              3295.1936              3641.9656
 Red. masses --      2.6303                 1.1012                 1.0845
 Frc consts  --      3.2965                 7.0446                 8.4748
 IR Inten    --      0.0000                 0.0000                 0.0000

 - Thermochemistry -
 -------------------
 Temperature   298.150 Kelvin.  Pressure   1.00000 Atm.
 Atom     1 has atomic number  6 and mass  12.00000

 Molecular mass:    70.02795 amu.
 Principal axes and moments of inertia in atomic units:
                           1         2         3
     Eigenvalues --   175.88523 179.32536 355.21060
           X            0.79265   0.60968   0.00000
           Y           -0.60968   0.79265   0.00000
           Z            0.00000   0.00000   1.00000
 This molecule is an asymmetric top.
 Rotational symmetry number  1.
 Rotational temperatures (Kelvin)      0.49245     0.48300     0.24384
 Rotational constants (GHZ):          10.26090    10.06406     5.08076
 Zero-point vibrational energy     120192.4 (Joules/Mol)
                                   28.72667 (Kcal/Mol)
 Warning -- explicit consideration of   1 degrees of freedom as
           vibrations may cause significant error
 Vibrational temperatures:    797.27   970.35  1023.97  1170.18  1331.60
          (Kelvin)           1411.13  1468.33  1493.97  1613.89  1717.85
                             1761.38  2072.26  2098.41  4741.04  5239.97

 Zero-point correction=                           0.045779 (Hartree/Particle)
 Thermal correction to Energy=                    0.049326
 Thermal correction to Enthalpy=                  0.050271
 Thermal correction to Gibbs Free Energy=         0.019620
 Sum of electronic and zero-point Energies=           -257.635955
 Sum of electronic and thermal Energies=              -257.632408
 Sum of electronic and thermal Enthalpies=            -257.631463
 Sum of electronic and thermal Free Energies=         -257.662114

                     E (Thermal)             CV                S
                      KCal/Mol        Cal/Mol-Kelvin    Cal/Mol-Kelvin
 Total                   30.953             11.804             64.509
 Electronic               0.000              0.000              0.000
 Translational            0.889              2.981             38.656
 Rotational               0.889              2.981             23.931
 Vibrational             29.175              5.842              1.922
 Vibration     1          0.910              1.131              0.536

 Normal termination of Gaussian 09 at Tue Nov 26 10:20:50 2013.
