 Gaussian 09, Revision D.01,
 Gaussian 09:  EM64L-G09RevD.01 24-Apr-2013

 ---------------------------------------
 #MP4=FULL/6-311G(d,p) opt=z-matrix freq
 ---------------------------------------

 -------------------------------------------------------------------
 1H-tetrazole CH2N4 casno=288948 state=1 config=1 method=44 basis=21
 -------------------------------------------------------------------
 Symbolic Z-matrix:
 Charge =  0 Multiplicity = 1

 SCF Done:  E(RHF) =  -256.816035151     A.U. after   14 cycles
 E2 =    -0.9153334755D+00 EUMP2 =    -0.25773136862673D+03
 SCF Done:  E(RHF) =  -256.816034850     A.U. after    7 cycles
 E2 =    -0.9153433642D+00 EUMP2 =    -0.25773137821442D+03
 SCF Done:  E(RHF) =  -256.816035343     A.U. after    8 cycles
 E2 =    -0.9153236014D+00 EUMP2 =    -0.25773135894472D+03
 SCF Done:  E(RHF) =  -256.816033164     A.U. after    8 cycles
 E2 =    -0.9153560622D+00 EUMP2 =    -0.25773138922593D+03
 SCF Done:  E(RHF) =  -256.816037023     A.U. after    8 cycles
 E2 =    -0.9153108872D+00 EUMP2 =    -0.25773134790987D+03
 SCF Done:  E(RHF) =  -256.816033887     A.U. after    7 cycles
 E2 =    -0.9153496183D+00 EUMP2 =    -0.25773138350540D+03
 SCF Done:  E(RHF) =  -256.816036308     A.U. after    8 cycles
 E2 =    -0.9153173489D+00 EUMP2 =    -0.25773135365694D+03
 SCF Done:  E(RHF) =  -256.816034163     A.U. after    8 cycles
 E2 =    -0.9153494921D+00 EUMP2 =    -0.25773138365555D+03
 SCF Done:  E(RHF) =  -256.816036032     A.U. after    8 cycles
 E2 =    -0.9153174686D+00 EUMP2 =    -0.25773135350053D+03
 SCF Done:  E(RHF) =  -256.816035256     A.U. after    8 cycles
 E2 =    -0.9153362751D+00 EUMP2 =    -0.25773137153073D+03
 E2 =    -0.9153306816D+00 EUMP2 =    -0.25773136566411D+03
 E2 =    -0.9153395514D+00 EUMP2 =    -0.25773137404075D+03
 E2 =    -0.9153273851D+00 EUMP2 =    -0.25773136311517D+03
 E2 =    -0.9153291551D+00 EUMP2 =    -0.25773136546532D+03
 E2 =    -0.9153377802D+00 EUMP2 =    -0.25773137130179D+03
 E2 =    -0.9153000375D+00 EUMP2 =    -0.25773133747353D+03
 E2 =    -0.9153669122D+00 EUMP2 =    -0.25773139919248D+03
 E2 =    -0.9153719866D+00 EUMP2 =    -0.25773140347410D+03
 E2 =    -0.9152949649D+00 EUMP2 =    -0.25773133332760D+03
 E2 =    -0.9153254646D+00 EUMP2 =    -0.25773136128691D+03
 Normal termination of Gaussian 09 at Tue Nov 26 12:18:10 2013.

 ----------------------------------------------------------------------
 #N Geom=AllCheck Guess=TCheck SCRF=Check GenChk RMP4SDTQ-Full/6-311G(d
 ,p) Freq
 ----------------------------------------------------------------------

 Structure from the checkpoint file:  "/tmp/rdj3/g09-13184/Gau-17484.chk"
 -------------------------------------------------------------------
 1H-tetrazole CH2N4 casno=288948 state=1 config=1 method=44 basis=21
 -------------------------------------------------------------------
 Charge =  0 Multiplicity = 1

                         Standard orientation:
 ---------------------------------------------------------------------
 Center     Atomic      Atomic             Coordinates (Angstroms)
 Number     Number       Type             X           Y           Z
 ---------------------------------------------------------------------
      1          6           0        1.072874    0.236480    0.000000
      2          7           0        0.000000    1.060735    0.000000
      3          7           0       -1.128082    0.308742    0.000000
      4          7           0       -0.726887   -0.933434    0.000000
      5          7           0        0.644260   -1.015449    0.000000
      6          1           0        2.101037    0.568445    0.000000
      7          1           0       -0.063313    2.068523    0.000000
 ---------------------------------------------------------------------

 E2 =    -0.9300237947D+00 EUMP2 =    -0.25773671438368D+03
 E2 =    -0.9295788003D+00 EUMP2 =    -0.25773638168514D+03
 E2 =    -0.9288182756D+00 EUMP2 =    -0.25773646561055D+03
 E2 =    -0.9307949520D+00 EUMP2 =    -0.25773658209558D+03
 E2 =    -0.9303773326D+00 EUMP2 =    -0.25773639503285D+03
 E2 =    -0.9292258968D+00 EUMP2 =    -0.25773671278237D+03
 E2 =    -0.9292983368D+00 EUMP2 =    -0.25773659111655D+03
 E2 =    -0.9303075730D+00 EUMP2 =    -0.25773643523386D+03
 E2 =    -0.9302240003D+00 EUMP2 =    -0.25773651798717D+03
 E2 =    -0.9293700546D+00 EUMP2 =    -0.25773659668135D+03
 SCF Done:  E(RHF) =  -256.806439442     A.U. after   10 cycles
 E2 =    -0.9301461931D+00 EUMP2 =    -0.25773658563561D+03
 SCF Done:  E(RHF) =  -256.807176541     A.U. after   10 cycles
 E2 =    -0.9294494279D+00 EUMP2 =    -0.25773662596874D+03
 SCF Done:  E(RHF) =  -256.806553591     A.U. after   11 cycles
 E2 =    -0.9300562179D+00 EUMP2 =    -0.25773660980940D+03
 SCF Done:  E(RHF) =  -256.807085276     A.U. after   11 cycles
 E2 =    -0.9295436177D+00 EUMP2 =    -0.25773662889350D+03
 SCF Done:  E(RHF) =  -256.806875135     A.U. after   10 cycles
 E2 =    -0.9298074865D+00 EUMP2 =    -0.25773668262153D+03
 SCF Done:  E(RHF) =  -256.806889706     A.U. after   10 cycles
 E2 =    -0.9297996896D+00 EUMP2 =    -0.25773668939599D+03
 SCF Done:  E(RHF) =  -256.806882761     A.U. after   10 cycles
 E2 =    -0.9298050773D+00 EUMP2 =    -0.25773668783880D+03
 SCF Done:  E(RHF) =  -256.806873726     A.U. after   10 cycles
 E2 =    -0.9298049234D+00 EUMP2 =    -0.25773667864941D+03
 SCF Done:  E(RHF) =  -256.806877909     A.U. after   10 cycles
 E2 =    -0.9298032417D+00 EUMP2 =    -0.25773668115018D+03
 SCF Done:  E(RHF) =  -256.806901650     A.U. after   10 cycles
 E2 =    -0.9297979573D+00 EUMP2 =    -0.25773669960741D+03

 Alpha  occ. eigenvalues --  -15.68329 -15.66479 -15.64772 -15.60572 -11.34322
 Alpha  occ. eigenvalues --   -1.48515  -1.25268  -1.19087  -0.90613  -0.88664
 Alpha  occ. eigenvalues --   -0.79663  -0.67418  -0.67005  -0.56734  -0.48049
 Alpha  occ. eigenvalues --   -0.47433  -0.45336  -0.41641
 Alpha virt. eigenvalues --    0.12711   0.12886   0.16577   0.17720   0.32744
 Alpha virt. eigenvalues --    0.35670   0.37312   0.45008   0.51361   0.56513
 Alpha virt. eigenvalues --    0.61236   0.61741   0.68547   0.74750   0.76842

 Mulliken charges:
               1
     1  C    0.312512
     2  N   -0.335630
     3  N   -0.033161
     4  N   -0.071884
     5  N   -0.299523
     6  H    0.156166
     7  H    0.271519
 Sum of Mulliken charges =   0.00000

 Dipole moment (field-independent basis, Debye):
    X=              2.7177    Y=              5.0076    Z=              0.0262  Tot=              5.6976
 Quadrupole moment (field-independent basis, Debye-Ang):
   XX=            -28.8191   YY=            -26.7095   ZZ=            -28.8983
   XY=              2.1133   XZ=              0.0198   YZ=              0.0477

                      1                      2                      3
                     A"                     A"                     A"
 Frequencies --    567.3428               684.8228               722.5213
 Red. masses --      1.9993                 1.9553                 6.1065
 Frc consts  --      0.3792                 0.5403                 1.8782
 IR Inten    --      0.0000                 0.0000                 0.0000

                      4                      5                      6
                     A"                     A'                     A'
 Frequencies --    838.4708               945.2498               996.7012
 Red. masses --      1.3254                 4.9449                 6.5100
 Frc consts  --      0.5490                 2.6031                 3.8103
 IR Inten    --      0.0000                 0.0000                 0.0000

                      7                      8                      9
                     A'                     A'                     A'
 Frequencies --   1041.2309              1060.0394              1140.4552
 Red. masses --      5.9963                 3.1590                 1.8801
 Frc consts  --      3.8302                 2.0915                 1.4408
 IR Inten    --      0.0000                 0.0000                 0.0000

                     10                     11                     12
                     A'                     A'                     A'
 Frequencies --   1224.2275              1246.8490              1454.3527
 Red. masses --     10.7814                 2.5959                 3.4134
 Frc consts  --      9.5203                 2.3778                 4.2538
 IR Inten    --      0.0000                 0.0000                 0.0000

                     13                     14                     15
                     A'                     A'                     A'
 Frequencies --   1482.0659              3302.1295              3678.5959
 Red. masses --      2.6883                 1.1004                 1.0838
 Frc consts  --      3.4790                 7.0693                 8.6410
 IR Inten    --      0.0000                 0.0000                 0.0000

 - Thermochemistry -
 -------------------
 Temperature   298.150 Kelvin.  Pressure   1.00000 Atm.
 Atom     1 has atomic number  6 and mass  12.00000

 Molecular mass:    70.02795 amu.
 Principal axes and moments of inertia in atomic units:
                           1         2         3
     Eigenvalues --   173.45248 177.15288 350.60536
           X            0.80187   0.59749   0.00000
           Y           -0.59749   0.80187   0.00000
           Z            0.00000   0.00000   1.00000
 This molecule is an asymmetric top.
 Rotational symmetry number  1.
 Rotational temperatures (Kelvin)      0.49935     0.48892     0.24704
 Rotational constants (GHZ):          10.40482    10.18748     5.14750
 Zero-point vibrational energy     121929.7 (Joules/Mol)
                                   29.14190 (Kcal/Mol)
 Warning -- explicit consideration of   1 degrees of freedom as
           vibrations may cause significant error
 Vibrational temperatures:    816.28   985.31  1039.55  1206.37  1360.00
          (Kelvin)           1434.03  1498.10  1525.16  1640.86  1761.39
                             1793.94  2092.49  2132.36  4751.02  5292.67

 Zero-point correction=                           0.046441 (Hartree/Particle)
 Thermal correction to Energy=                    0.049948
 Thermal correction to Enthalpy=                  0.050892
 Thermal correction to Gibbs Free Energy=         0.020314
 Sum of electronic and zero-point Energies=           -257.747198
 Sum of electronic and thermal Energies=              -257.743691
 Sum of electronic and thermal Enthalpies=            -257.742747
 Sum of electronic and thermal Free Energies=         -257.773324

                     E (Thermal)             CV                S
                      KCal/Mol        Cal/Mol-Kelvin    Cal/Mol-Kelvin
 Total                   31.343             11.551             64.356
 Electronic               0.000              0.000              0.000
 Translational            0.889              2.981             38.656
 Rotational               0.889              2.981             23.892
 Vibrational             29.565              5.589              1.808
 Vibration     1          0.923              1.102              0.509

 Normal termination of Gaussian 09 at Tue Nov 26 16:19:06 2013.
