 Gaussian 09, Revision D.01,
 Gaussian 09:  EM64L-G09RevD.01 24-Apr-2013

 -----------------------------------
 #MP4=FULL/cc-pVTZ opt=z-matrix freq
 -----------------------------------

 ------------------------------------------------------------------
 1H-tetrazole CH2N4 casno=288948 state=1 config=1 method=44 basis=6
 ------------------------------------------------------------------
 Symbolic Z-matrix:
 Charge =  0 Multiplicity = 1

 SCF Done:  E(RHF) =  -256.848466948     A.U. after   14 cycles
 E2 =    -0.1023992532D+01 EUMP2 =    -0.25787245947917D+03
 SCF Done:  E(RHF) =  -256.848465220     A.U. after    7 cycles
 E2 =    -0.1024000051D+01 EUMP2 =    -0.25787246527123D+03
 SCF Done:  E(RHF) =  -256.848468569     A.U. after    7 cycles
 E2 =    -0.1023985024D+01 EUMP2 =    -0.25787245359323D+03
 SCF Done:  E(RHF) =  -256.848463870     A.U. after    7 cycles
 E2 =    -0.1024012521D+01 EUMP2 =    -0.25787247639036D+03
 SCF Done:  E(RHF) =  -256.848469912     A.U. after    8 cycles
 E2 =    -0.1023972581D+01 EUMP2 =    -0.25787244249283D+03
 SCF Done:  E(RHF) =  -256.848465148     A.U. after    6 cycles
 E2 =    -0.1024006396D+01 EUMP2 =    -0.25787247154405D+03
 SCF Done:  E(RHF) =  -256.848468642     A.U. after    8 cycles
 E2 =    -0.1023978705D+01 EUMP2 =    -0.25787244734718D+03
 SCF Done:  E(RHF) =  -256.848465459     A.U. after    7 cycles
 E2 =    -0.1024005746D+01 EUMP2 =    -0.25787247120553D+03
 SCF Done:  E(RHF) =  -256.848468331     A.U. after    8 cycles
 E2 =    -0.1023979368D+01 EUMP2 =    -0.25787244769846D+03
 SCF Done:  E(RHF) =  -256.848466544     A.U. after    7 cycles
 E2 =    -0.1023993296D+01 EUMP2 =    -0.25787245984014D+03
 E2 =    -0.1023991820D+01 EUMP2 =    -0.25787245910742D+03
 E2 =    -0.1023997662D+01 EUMP2 =    -0.25787246299992D+03
 E2 =    -0.1023987389D+01 EUMP2 =    -0.25787245586496D+03
 E2 =    -0.1023988768D+01 EUMP2 =    -0.25787245606847D+03
 E2 =    -0.1023996311D+01 EUMP2 =    -0.25787246245044D+03
 E2 =    -0.1023959442D+01 EUMP2 =    -0.25787242866093D+03
 E2 =    -0.1024025653D+01 EUMP2 =    -0.25787248976572D+03
 E2 =    -0.1024029525D+01 EUMP2 =    -0.25787249136716D+03
 E2 =    -0.1023955590D+01 EUMP2 =    -0.25787242720745D+03
 E2 =    -0.1023985093D+01 EUMP2 =    -0.25787245327655D+03
 Normal termination of Gaussian 09 at Wed Nov 27 15:57:33 2013.

 ----------------------------------------------------------------------
 #N Geom=AllCheck Guess=TCheck SCRF=Check GenChk RMP4SDTQ-Full/CC-pVTZ
 Freq
 ----------------------------------------------------------------------

 Structure from the checkpoint file:  "/tmp/rdj3/g09-13184/Gau-746.chk"
 ------------------------------------------------------------------
 1H-tetrazole CH2N4 casno=288948 state=1 config=1 method=44 basis=6
 ------------------------------------------------------------------
 Charge =  0 Multiplicity = 1

                         Standard orientation:
 ---------------------------------------------------------------------
 Center     Atomic      Atomic             Coordinates (Angstroms)
 Number     Number       Type             X           Y           Z
 ---------------------------------------------------------------------
      1          6           0        1.064955    0.236672    0.000000
      2          7           0        0.000000    1.055412    0.000000
      3          7           0       -1.121737    0.307045    0.000000
      4          7           0       -0.722378   -0.930154    0.000000
      5          7           0        0.641661   -1.010010    0.000000
      6          1           0        2.084154    0.565468    0.000000
      7          1           0       -0.056704    2.058452    0.000000
 ---------------------------------------------------------------------

 E2 =    -0.1034538216D+01 EUMP2 =    -0.25787599172534D+03
 E2 =    -0.1034063154D+01 EUMP2 =    -0.25787566804124D+03
 E2 =    -0.1033369654D+01 EUMP2 =    -0.25787574617096D+03
 E2 =    -0.1035244029D+01 EUMP2 =    -0.25787586691792D+03
 E2 =    -0.1034786857D+01 EUMP2 =    -0.25787568221379D+03
 E2 =    -0.1033815987D+01 EUMP2 =    -0.25787598949970D+03
 E2 =    -0.1033880566D+01 EUMP2 =    -0.25787586503020D+03
 E2 =    -0.1034724717D+01 EUMP2 =    -0.25787572500251D+03
 E2 =    -0.1034583724D+01 EUMP2 =    -0.25787581311856D+03
 E2 =    -0.1034010153D+01 EUMP2 =    -0.25787586454633D+03
 SCF Done:  E(RHF) =  -256.841306450     A.U. after   10 cycles
 E2 =    -0.1034572025D+01 EUMP2 =    -0.25787587847546D+03
 SCF Done:  E(RHF) =  -256.841877222     A.U. after   10 cycles
 E2 =    -0.1034019449D+01 EUMP2 =    -0.25787589667078D+03
 SCF Done:  E(RHF) =  -256.841370156     A.U. after    9 cycles
 E2 =    -0.1034521563D+01 EUMP2 =    -0.25787589171902D+03
 SCF Done:  E(RHF) =  -256.841836124     A.U. after    9 cycles
 E2 =    -0.1034074279D+01 EUMP2 =    -0.25787591040339D+03
 SCF Done:  E(RHF) =  -256.841661165     A.U. after    9 cycles
 E2 =    -0.1034301274D+01 EUMP2 =    -0.25787596243856D+03
 SCF Done:  E(RHF) =  -256.841675237     A.U. after    9 cycles
 E2 =    -0.1034295341D+01 EUMP2 =    -0.25787597057816D+03
 SCF Done:  E(RHF) =  -256.841668735     A.U. after    9 cycles
 E2 =    -0.1034300430D+01 EUMP2 =    -0.25787596916508D+03
 SCF Done:  E(RHF) =  -256.841659548     A.U. after    9 cycles
 E2 =    -0.1034300637D+01 EUMP2 =    -0.25787596018531D+03
 SCF Done:  E(RHF) =  -256.841663929     A.U. after    9 cycles
 E2 =    -0.1034299021D+01 EUMP2 =    -0.25787596295063D+03
 SCF Done:  E(RHF) =  -256.841687741     A.U. after    9 cycles
 E2 =    -0.1034294061D+01 EUMP2 =    -0.25787598180224D+03

 Alpha  occ. eigenvalues --  -15.68177 -15.66329 -15.64779 -15.60447 -11.33678
 Alpha  occ. eigenvalues --   -1.48742  -1.25373  -1.19002  -0.90648  -0.88765
 Alpha  occ. eigenvalues --   -0.79818  -0.67469  -0.67398  -0.56750  -0.47960
 Alpha  occ. eigenvalues --   -0.47297  -0.45437  -0.41606
 Alpha virt. eigenvalues --    0.11594   0.12987   0.15758   0.17485   0.26897
 Alpha virt. eigenvalues --    0.29577   0.34847   0.40464   0.42415   0.47071
 Alpha virt. eigenvalues --    0.51570   0.55088   0.56406   0.57594   0.59331

 Mulliken charges:
               1
     1  C   -0.002941
     2  N   -0.058560
     3  N   -0.084269
     4  N   -0.064233
     5  N   -0.197425
     6  H    0.186261
     7  H    0.221168
 Sum of Mulliken charges =   0.00000

 Dipole moment (field-independent basis, Debye):
    X=              2.6305    Y=              4.8978    Z=              0.0252  Tot=              5.5596
 Quadrupole moment (field-independent basis, Debye-Ang):
   XX=            -28.7779   YY=            -26.4708   ZZ=            -28.8103
   XY=              2.0877   XZ=              0.0199   YZ=              0.0463

                      1                      2                      3
                     A"                     A"                     A"
 Frequencies --    602.9137               693.1010               736.8392
 Red. masses --      1.8531                 1.9659                 6.5686
 Frc consts  --      0.3969                 0.5564                 2.1012
 IR Inten    --      0.0000                 0.0000                 0.0000

                      4                      5                      6
                     A"                     A'                     A'
 Frequencies --    878.5754               949.6596               999.0055
 Red. masses --      1.3705                 5.3294                 6.1906
 Frc consts  --      0.6233                 2.8318                 3.6401
 IR Inten    --      0.0000                 0.0000                 0.0000

                      7                      8                      9
                     A'                     A'                     A'
 Frequencies --   1043.2654              1056.9343              1147.8431
 Red. masses --      6.8387                 3.1466                 1.9176
 Frc consts  --      4.3854                 2.0710                 1.4886
 IR Inten    --      0.0000                 0.0000                 0.0000

                     10                     11                     12
                     A'                     A'                     A'
 Frequencies --   1219.5660              1252.7241              1459.5751
 Red. masses --      8.7373                 2.4862                 2.7186
 Frc consts  --      7.6567                 2.2988                 3.4123
 IR Inten    --      0.0000                 0.0000                 0.0000

                     13                     14                     15
                     A'                     A'                     A'
 Frequencies --   1485.6201              3314.2130              3679.4659
 Red. masses --      3.3914                 1.1002                 1.0839
 Frc consts  --      4.4101                 7.1198                 8.6460
 IR Inten    --      0.0000                 0.0000                 0.0000

 - Thermochemistry -
 -------------------
 Temperature   298.150 Kelvin.  Pressure   1.00000 Atm.
 Atom     1 has atomic number  6 and mass  12.00000

 Molecular mass:    70.02795 amu.
 Principal axes and moments of inertia in atomic units:
                           1         2         3
     Eigenvalues --   171.70043 175.09019 346.79062
           X            0.75714   0.65326   0.00000
           Y           -0.65326   0.75714   0.00000
           Z            0.00000   0.00000   1.00000
 This molecule is an asymmetric top.
 Rotational symmetry number  1.
 Rotational temperatures (Kelvin)      0.50445     0.49468     0.24976
 Rotational constants (GHZ):          10.51099    10.30749     5.20412
 Zero-point vibrational energy     122732.7 (Joules/Mol)
                                   29.33381 (Kcal/Mol)
 Warning -- explicit consideration of   1 degrees of freedom as
           vibrations may cause significant error
 Vibrational temperatures:    867.46   997.22  1060.15  1264.07  1366.35
          (Kelvin)           1437.34  1501.02  1520.69  1651.49  1754.68
                             1802.39  2100.00  2137.47  4768.41  5293.92

 Zero-point correction=                           0.046746 (Hartree/Particle)
 Thermal correction to Energy=                    0.050213
 Thermal correction to Enthalpy=                  0.051157
 Thermal correction to Gibbs Free Energy=         0.020653
 Sum of electronic and zero-point Energies=           -257.889459
 Sum of electronic and thermal Energies=              -257.885992
 Sum of electronic and thermal Enthalpies=            -257.885048
 Sum of electronic and thermal Free Energies=         -257.915552

                     E (Thermal)             CV                S
                      KCal/Mol        Cal/Mol-Kelvin    Cal/Mol-Kelvin
 Total                   31.509             11.357             64.202
 Electronic               0.000              0.000              0.000
 Translational            0.889              2.981             38.656
 Rotational               0.889              2.981             23.859
 Vibrational             29.732              5.395              1.687
 Vibration     1          0.961              1.026              0.445

 Normal termination of Gaussian 09 at Fri Nov 29 04:58:15 2013.
