 Gaussian 09, Revision D.01,
 Gaussian 09:  EM64L-G09RevD.01 24-Apr-2013

 -----------------------------------
 #MP4=FULL/cc-pVDZ opt=z-matrix freq
 -----------------------------------

 ------------------------------------------------------------------
 1H-tetrazole CH2N4 casno=288948 state=1 config=1 method=44 basis=5
 ------------------------------------------------------------------
 Symbolic Z-matrix:
 Charge =  0 Multiplicity = 1

 SCF Done:  E(RHF) =  -256.780056734     A.U. after   15 cycles
 E2 =    -0.7868768137D+00 EUMP2 =    -0.25756693354721D+03
 SCF Done:  E(RHF) =  -256.780057527     A.U. after    8 cycles
 E2 =    -0.7868884999D+00 EUMP2 =    -0.25756694602661D+03
 SCF Done:  E(RHF) =  -256.780055830     A.U. after    8 cycles
 E2 =    -0.7868651348D+00 EUMP2 =    -0.25756692096530D+03
 SCF Done:  E(RHF) =  -256.780055848     A.U. after    8 cycles
 E2 =    -0.7869013941D+00 EUMP2 =    -0.25756695724231D+03
 SCF Done:  E(RHF) =  -256.780057502     A.U. after    9 cycles
 E2 =    -0.7868522376D+00 EUMP2 =    -0.25756690973912D+03
 SCF Done:  E(RHF) =  -256.780056129     A.U. after    7 cycles
 E2 =    -0.7868948620D+00 EUMP2 =    -0.25756695099095D+03
 SCF Done:  E(RHF) =  -256.780057230     A.U. after    8 cycles
 E2 =    -0.7868587838D+00 EUMP2 =    -0.25756691601402D+03
 SCF Done:  E(RHF) =  -256.780057558     A.U. after    8 cycles
 E2 =    -0.7868949173D+00 EUMP2 =    -0.25756695247514D+03
 SCF Done:  E(RHF) =  -256.780055800     A.U. after    9 cycles
 E2 =    -0.7868587254D+00 EUMP2 =    -0.25756691452589D+03
 SCF Done:  E(RHF) =  -256.780059084     A.U. after    8 cycles
 E2 =    -0.7868801153D+00 EUMP2 =    -0.25756693919930D+03
 E2 =    -0.7868735219D+00 EUMP2 =    -0.25756692783734D+03
 E2 =    -0.7868832596D+00 EUMP2 =    -0.25756694133969D+03
 E2 =    -0.7868703562D+00 EUMP2 =    -0.25756692565804D+03
 E2 =    -0.7868719826D+00 EUMP2 =    -0.25756693127973D+03
 E2 =    -0.7868816233D+00 EUMP2 =    -0.25756693531096D+03
 E2 =    -0.7868424653D+00 EUMP2 =    -0.25756689886265D+03
 E2 =    -0.7869111373D+00 EUMP2 =    -0.25756696760386D+03
 E2 =    -0.7869171728D+00 EUMP2 =    -0.25756697269720D+03
 E2 =    -0.7868364481D+00 EUMP2 =    -0.25756689392379D+03
 E2 =    -0.7868681737D+00 EUMP2 =    -0.25756692338712D+03
 Normal termination of Gaussian 09 at Tue Nov 26 17:22:47 2013.

 ----------------------------------------------------------------------
 #N Geom=AllCheck Guess=TCheck SCRF=Check GenChk RMP4SDTQ-Full/CC-pVDZ
 Freq
 ----------------------------------------------------------------------

 Structure from the checkpoint file:  "/tmp/rdj3/g09-13184/Gau-6040.chk"
 ------------------------------------------------------------------
 1H-tetrazole CH2N4 casno=288948 state=1 config=1 method=44 basis=5
 ------------------------------------------------------------------
 Charge =  0 Multiplicity = 1

                         Standard orientation:
 ---------------------------------------------------------------------
 Center     Atomic      Atomic             Coordinates (Angstroms)
 Number     Number       Type             X           Y           Z
 ---------------------------------------------------------------------
      1          6           0        1.075570    0.236361    0.000000
      2          7           0        0.000000    1.064756    0.000000
      3          7           0       -1.130912    0.311416    0.000000
      4          7           0       -0.729658   -0.935568    0.000000
      5          7           0        0.644980   -1.021792    0.000000
      6          1           0        2.112416    0.570740    0.000000
      7          1           0       -0.056707    2.079413    0.000000
 ---------------------------------------------------------------------

 E2 =    -0.8051816972D+00 EUMP2 =    -0.25757475417803D+03
 E2 =    -0.8047862418D+00 EUMP2 =    -0.25757442899592D+03
 E2 =    -0.8039419976D+00 EUMP2 =    -0.25757447502018D+03
 E2 =    -0.8060369046D+00 EUMP2 =    -0.25757466027168D+03
 E2 =    -0.8056229991D+00 EUMP2 =    -0.25757445016610D+03
 E2 =    -0.8043460629D+00 EUMP2 =    -0.25757474603096D+03
 E2 =    -0.8044083595D+00 EUMP2 =    -0.25757461573856D+03
 E2 =    -0.8055638222D+00 EUMP2 =    -0.25757449838859D+03
 E2 =    -0.8054528448D+00 EUMP2 =    -0.25757456042581D+03
 E2 =    -0.8045092571D+00 EUMP2 =    -0.25757464186412D+03
 SCF Done:  E(RHF) =  -256.769272500     A.U. after   11 cycles
 E2 =    -0.8053608950D+00 EUMP2 =    -0.25757463339504D+03
 SCF Done:  E(RHF) =  -256.770063154     A.U. after   11 cycles
 E2 =    -0.8046031798D+00 EUMP2 =    -0.25757466633341D+03
 SCF Done:  E(RHF) =  -256.769382190     A.U. after   11 cycles
 E2 =    -0.8052702304D+00 EUMP2 =    -0.25757465242045D+03
 SCF Done:  E(RHF) =  -256.769975194     A.U. after   11 cycles
 E2 =    -0.8046981695D+00 EUMP2 =    -0.25757467336342D+03
 SCF Done:  E(RHF) =  -256.769734323     A.U. after   10 cycles
 E2 =    -0.8049918621D+00 EUMP2 =    -0.25757472618539D+03
 SCF Done:  E(RHF) =  -256.769748355     A.U. after   10 cycles
 E2 =    -0.8049840095D+00 EUMP2 =    -0.25757473236430D+03
 SCF Done:  E(RHF) =  -256.769741673     A.U. after   10 cycles
 E2 =    -0.8049892875D+00 EUMP2 =    -0.25757473096009D+03
 SCF Done:  E(RHF) =  -256.769732343     A.U. after   10 cycles
 E2 =    -0.8049892730D+00 EUMP2 =    -0.25757472161622D+03
 SCF Done:  E(RHF) =  -256.769736638     A.U. after   11 cycles
 E2 =    -0.8049877987D+00 EUMP2 =    -0.25757472443636D+03
 SCF Done:  E(RHF) =  -256.769760414     A.U. after   10 cycles
 E2 =    -0.8049823902D+00 EUMP2 =    -0.25757474280454D+03

 Alpha  occ. eigenvalues --  -15.68586 -15.66604 -15.64924 -15.60904 -11.34763
 Alpha  occ. eigenvalues --   -1.47866  -1.24842  -1.18583  -0.90096  -0.88190
 Alpha  occ. eigenvalues --   -0.78969  -0.66800  -0.66513  -0.56291  -0.47667
 Alpha  occ. eigenvalues --   -0.47136  -0.44942  -0.41180
 Alpha virt. eigenvalues --    0.13320   0.15530   0.18161   0.19495   0.34315
 Alpha virt. eigenvalues --    0.37086   0.42813   0.47208   0.59067   0.65898
 Alpha virt. eigenvalues --    0.66512   0.75290   0.79243   0.81889   0.87187

 Mulliken charges:
               1
     1  C    0.314175
     2  N   -0.172195
     3  N   -0.061517
     4  N   -0.074162
     5  N   -0.267826
     6  H    0.096614
     7  H    0.164912
 Sum of Mulliken charges =   0.00000

 Dipole moment (field-independent basis, Debye):
    X=              2.6867    Y=              4.9268    Z=              0.0254  Tot=              5.6118
 Quadrupole moment (field-independent basis, Debye-Ang):
   XX=            -28.6368   YY=            -26.4719   ZZ=            -28.7945
   XY=              2.0877   XZ=              0.0197   YZ=              0.0463

                      1                      2                      3
                     A"                     A"                     A"
 Frequencies --    551.2345               682.7959               727.0237
 Red. masses --      1.8035                 2.0960                 6.9232
 Frc consts  --      0.3229                 0.5757                 2.1560
 IR Inten    --      0.0000                 0.0000                 0.0000

                      4                      5                      6
                     A"                     A'                     A'
 Frequencies --    832.6278               942.4769               991.5432
 Red. masses --      1.3277                 4.7109                 5.8683
 Frc consts  --      0.5423                 2.4654                 3.3992
 IR Inten    --      0.0000                 0.0000                 0.0000

                      7                      8                      9
                     A'                     A'                     A'
 Frequencies --   1040.3678              1050.9797              1133.1233
 Red. masses --      5.9453                 2.9056                 1.9147
 Frc consts  --      3.7914                 1.8909                 1.4484
 IR Inten    --      0.0000                 0.0000                 0.0000

                     10                     11                     12
                     A'                     A'                     A'
 Frequencies --   1227.8544              1239.9834              1456.2051
 Red. masses --     11.1307                 2.5891                 2.7862
 Frc consts  --      9.8870                 2.3455                 3.4810
 IR Inten    --      0.0000                 0.0000                 0.0000

                     13                     14                     15
                     A'                     A'                     A'
 Frequencies --   1479.8083              3310.0614              3658.6352
 Red. masses --      3.8102                 1.1008                 1.0847
 Frc consts  --      4.9160                 7.1059                 8.5547
 IR Inten    --      0.0000                 0.0000                 0.0000

 - Thermochemistry -
 -------------------
 Temperature   298.150 Kelvin.  Pressure   1.00000 Atm.
 Atom     1 has atomic number  6 and mass  12.00000

 Molecular mass:    70.02795 amu.
 Principal axes and moments of inertia in atomic units:
                           1         2         3
     Eigenvalues --   174.64106 178.46829 353.10935
           X            0.75349   0.65746   0.00000
           Y           -0.65746   0.75349   0.00000
           Z            0.00000   0.00000   1.00000
 This molecule is an asymmetric top.
 Rotational symmetry number  1.
 Rotational temperatures (Kelvin)      0.49595     0.48532     0.24529
 Rotational constants (GHZ):          10.33400    10.11239     5.11100
 Zero-point vibrational energy     121568.8 (Joules/Mol)
                                   29.05565 (Kcal/Mol)
 Warning -- explicit consideration of   1 degrees of freedom as
           vibrations may cause significant error
 Vibrational temperatures:    793.10   982.39  1046.02  1197.96  1356.01
          (Kelvin)           1426.61  1496.86  1512.12  1630.31  1766.61
                             1784.06  2095.15  2129.11  4762.43  5263.95

 Zero-point correction=                           0.046303 (Hartree/Particle)
 Thermal correction to Energy=                    0.049824
 Thermal correction to Enthalpy=                  0.050768
 Thermal correction to Gibbs Free Energy=         0.020161
 Sum of electronic and zero-point Energies=           -257.577937
 Sum of electronic and thermal Energies=              -257.574416
 Sum of electronic and thermal Enthalpies=            -257.573472
 Sum of electronic and thermal Free Energies=         -257.604080

                     E (Thermal)             CV                S
                      KCal/Mol        Cal/Mol-Kelvin    Cal/Mol-Kelvin
 Total                   31.265             11.617             64.419
 Electronic               0.000              0.000              0.000
 Translational            0.889              2.981             38.656
 Rotational               0.889              2.981             23.913
 Vibrational             29.488              5.655              1.850
 Vibration     1          0.907              1.137              0.542

 Normal termination of Gaussian 09 at Tue Nov 26 19:01:35 2013.
