 Gaussian 09, Revision D.01,
 Gaussian 09:  EM64L-G09RevD.01 24-Apr-2013

 ----------------------
 #PM6 opt=z-matrix freq
 ----------------------

 ------------------------------------------------------------------
 1H-tetrazole CH2N4 casno=288948 state=1 config=1 method=48 basis=0
 ------------------------------------------------------------------
 Symbolic Z-matrix:
 Charge =  0 Multiplicity = 1

 SCF Done:  E(RPM6) =  0.152500021798     A.U. after   14 cycles
 SCF Done:  E(RPM6) =  0.129283460670     A.U. after   12 cycles
 SCF Done:  E(RPM6) =  0.128379924608     A.U. after   12 cycles
 SCF Done:  E(RPM6) =  0.128189653568     A.U. after   11 cycles
 SCF Done:  E(RPM6) =  0.130853373380     A.U. after   12 cycles
 SCF Done:  E(RPM6) =  0.128160042555     A.U. after   10 cycles
 SCF Done:  E(RPM6) =  0.128119687514     A.U. after   11 cycles
 SCF Done:  E(RPM6) =  0.128505381861     A.U. after   12 cycles
 SCF Done:  E(RPM6) =  0.128112849437     A.U. after   10 cycles
 SCF Done:  E(RPM6) =  0.128106066651     A.U. after   10 cycles
 SCF Done:  E(RPM6) =  0.128104772876     A.U. after    9 cycles
 SCF Done:  E(RPM6) =  0.128104677320     A.U. after    9 cycles
 Optimization completed.
    -- Stationary point found.
 Normal termination of Gaussian 09 at Fri Nov 29 04:58:24 2013.

 -------------------------------------------------------------
 #P Geom=AllCheck Guess=TCheck SCRF=Check GenChk RPM6/ZDO Freq
 -------------------------------------------------------------

 Structure from the checkpoint file:  "/tmp/rdj3/g09-13184/Gau-3536.chk"
 ------------------------------------------------------------------
 1H-tetrazole CH2N4 casno=288948 state=1 config=1 method=48 basis=0
 ------------------------------------------------------------------
 Charge =  0 Multiplicity = 1

                         Standard orientation:
 ---------------------------------------------------------------------
 Center     Atomic      Atomic             Coordinates (Angstroms)
 Number     Number       Type             X           Y           Z
 ---------------------------------------------------------------------
      1          6           0        1.111631    0.224853    0.000000
      2          7           0        0.000000    1.095336    0.000000
      3          7           0       -1.126079    0.310589    0.000000
      4          7           0       -0.740520   -0.933646    0.000000
      5          7           0        0.611673   -1.040623    0.000000
      6          1           0        2.148792    0.522992    0.000000
      7          1           0       -0.034096    2.106294    0.000000
 ---------------------------------------------------------------------

 SCF Done:  E(RPM6) =  0.128104677320     A.U. after    2 cycles

 The electronic state is 1-A'.
 Alpha  occ. eigenvalues --   -1.39989  -1.15725  -1.08423  -0.88220  -0.84187
 Alpha  occ. eigenvalues --   -0.72696  -0.63590  -0.63126  -0.49897  -0.45525
 Alpha  occ. eigenvalues --   -0.44953  -0.43407  -0.43369
 Alpha virt. eigenvalues --   -0.02524   0.01086   0.01477   0.07074   0.08850
 Alpha virt. eigenvalues --    0.10911   0.14897   0.17616   0.20077

 Mulliken charges:
               1
     1  C   -0.052887
     2  N   -0.180624
     3  N   -0.080572
     4  N   -0.019806
     5  N   -0.182465
     6  H    0.216572
     7  H    0.299780
 Sum of Mulliken charges =   0.00000

 Dipole moment (field-independent basis, Debye):
    X=              2.6611    Y=              4.9424    Z=              0.0000  Tot=              5.6133
 N-N= 1.033085443133D+02 E-N=-1.713170368134D+02  KE=-1.578169805334D+01
 Symmetry A'   KE=-1.322673931713D+01
 Symmetry A"   KE=-2.554958736211D+00
  Exact polarizability:  39.905   0.602  41.361   0.000   0.000   8.945
 Approx polarizability:  39.232  -0.205  45.421   0.000   0.000   5.687
 Leave Link  601 at Fri Nov 29 04:58:25 2013, MaxMem=   436000000 cpu:         0.2
 (Enter /usr/local/gaussian/g09.d01.em64t.legacy.linda/g09/l701.exe)
 Compute integral second derivatives.
 ... and contract with generalized density number  0.
 Leave Link  701 at Fri Nov 29 04:58:25 2013, MaxMem=   436000000 cpu:         0.5

                      1                      2                      3
                     A"                     A"                     A"
 Frequencies --    575.2564               669.1776               696.2648
 Red. masses --      2.7210                 4.2045                 1.5732
 Frc consts  --      0.5305                 1.1093                 0.4494
 IR Inten    --      0.0782                17.7744               134.2795

                      4                      5                      6
                     A"                     A'                     A'
 Frequencies --    889.0928               890.8268               901.3038
 Red. masses --      1.4536                 8.8630                 6.9078
 Frc consts  --      0.6770                 4.1440                 3.3062
 IR Inten    --     47.8152                 6.2500                 2.1642

                      7                      8                      9
                     A'                     A'                     A'
 Frequencies --   1106.1149              1141.4376              1207.1403
 Red. masses --      1.4285                 2.4475                 3.5077
 Frc consts  --      1.0298                 1.8788                 3.0115
 IR Inten    --     22.1537                24.6100                12.4119

                     10                     11                     12
                     A'                     A'                     A'
 Frequencies --   1308.0702              1352.2133              1437.8342
 Red. masses --      2.6831                 5.9222                 9.7535
 Frc consts  --      2.7049                 6.3801                11.8803
 IR Inten    --      6.1541                34.4326                24.4731

                     13                     14                     15
                     A'                     A'                     A'
 Frequencies --   1507.2790              2748.0781              2779.4868
 Red. masses --      5.1183                 1.0802                 1.0772
 Frc consts  --      6.8512                 4.8065                 4.9032
 IR Inten    --      3.9664               213.2749               322.0001

 - Thermochemistry -
 -------------------
 Temperature   298.150 Kelvin.  Pressure   1.00000 Atm.
 Atom     1 has atomic number  6 and mass  12.00000

 Molecular mass:    70.02795 amu.
 Principal axes and moments of inertia in atomic units:
                           1         2         3
     Eigenvalues --   178.78231 181.44007 360.22238
           X           -0.20309   0.97916   0.00000
           Y            0.97916   0.20309   0.00000
           Z            0.00000   0.00000   1.00000
 This molecule is an asymmetric top.
 Rotational symmetry number  1.
 Rotational temperatures (Kelvin)      0.48447     0.47737     0.24045
 Rotational constants (GHZ):          10.09463     9.94676     5.01008
 Zero-point vibrational energy     114898.8 (Joules/Mol)
                                   27.46147 (Kcal/Mol)
 Warning -- explicit consideration of   1 degrees of freedom as
           vibrations may cause significant error
 Vibrational temperatures:    827.66   962.80  1001.77  1279.20  1281.70
          (Kelvin)           1296.77  1591.45  1642.27  1736.80  1882.02
                             1945.53  2068.72  2168.64  3953.87  3999.06

 Zero-point correction=                           0.043763 (Hartree/Particle)
 Thermal correction to Energy=                    0.047268
 Thermal correction to Enthalpy=                  0.048212
 Thermal correction to Gibbs Free Energy=         0.017596
 Sum of electronic and zero-point Energies=              0.171867
 Sum of electronic and thermal Energies=                 0.175373
 Sum of electronic and thermal Enthalpies=               0.176317
 Sum of electronic and thermal Free Energies=            0.145701

                     E (Thermal)             CV                S
                      KCal/Mol        Cal/Mol-Kelvin    Cal/Mol-Kelvin
 Total                   29.661             11.455             64.437
 Electronic               0.000              0.000              0.000
 Translational            0.889              2.981             38.656
 Rotational               0.889              2.981             23.973
 Vibrational             27.884              5.494              1.808
 Vibration     1          0.932              1.085              0.494

 Optimization completed.
    -- Stationary point found.
 Normal termination of Gaussian 09 at Fri Nov 29 04:58:25 2013.
