 Gaussian 09, Revision D.01,
 Gaussian 09:  EM64L-G09RevD.01 24-Apr-2013

 ----------------------------------
 #MP4/aug-cc-pVDZ opt=z-matrix freq
 ----------------------------------

 ------------------------------------------------------------------
 1H-tetrazole CH2N4 casno=288948 state=1 config=1 method=4 basis=17
 ------------------------------------------------------------------
 Symbolic Z-matrix:
 Charge =  0 Multiplicity = 1

 SCF Done:  E(RHF) =  -256.797933873     A.U. after   15 cycles
 E2 =    -0.8075654250D+00 EUMP2 =    -0.25760549929751D+03
 SCF Done:  E(RHF) =  -256.797934875     A.U. after    8 cycles
 E2 =    -0.8075779671D+00 EUMP2 =    -0.25760551284254D+03
 SCF Done:  E(RHF) =  -256.797932761     A.U. after    8 cycles
 E2 =    -0.8075528919D+00 EUMP2 =    -0.25760548565254D+03
 SCF Done:  E(RHF) =  -256.797934335     A.U. after    8 cycles
 E2 =    -0.8075914440D+00 EUMP2 =    -0.25760552577939D+03
 SCF Done:  E(RHF) =  -256.797933293     A.U. after    9 cycles
 E2 =    -0.8075394126D+00 EUMP2 =    -0.25760547270560D+03
 SCF Done:  E(RHF) =  -256.797934844     A.U. after    7 cycles
 E2 =    -0.8075848828D+00 EUMP2 =    -0.25760551972690D+03
 SCF Done:  E(RHF) =  -256.797932793     A.U. after    9 cycles
 E2 =    -0.8075459902D+00 EUMP2 =    -0.25760547878336D+03
 SCF Done:  E(RHF) =  -256.797935688     A.U. after    8 cycles
 E2 =    -0.8075841193D+00 EUMP2 =    -0.25760551980725D+03
 SCF Done:  E(RHF) =  -256.797931949     A.U. after    9 cycles
 E2 =    -0.8075467472D+00 EUMP2 =    -0.25760547869643D+03
 SCF Done:  E(RHF) =  -256.797935594     A.U. after    8 cycles
 E2 =    -0.8075689756D+00 EUMP2 =    -0.25760550456971D+03
 E2 =    -0.8075618847D+00 EUMP2 =    -0.25760549396925D+03
 E2 =    -0.8075724762D+00 EUMP2 =    -0.25760550665078D+03
 E2 =    -0.8075583651D+00 EUMP2 =    -0.25760549185148D+03
 E2 =    -0.8075598801D+00 EUMP2 =    -0.25760549496208D+03
 E2 =    -0.8075709572D+00 EUMP2 =    -0.25760550313809D+03
 E2 =    -0.8075311211D+00 EUMP2 =    -0.25760546280569D+03
 E2 =    -0.8075997115D+00 EUMP2 =    -0.25760553516716D+03
 E2 =    -0.8076070024D+00 EUMP2 =    -0.25760554157130D+03
 E2 =    -0.8075238408D+00 EUMP2 =    -0.25760545655009D+03
 E2 =    -0.8075567003D+00 EUMP2 =    -0.25760548891237D+03

 1\1\GINC-N356\POpt\RMP4SDTQ-FC\Aug-CC-pVDZ\C1H2N4\RDJ3\29-Nov-2013\1\\
 #MP4/aug-cc-pVDZ opt=z-matrix freq\\1H-tetrazole CH2N4 casno=288948 st
 ate=1 config=1 method=4 basis=17\\0,1\X\X,1,1.\C,1,1.,2,90.\N,1,rn1,2,
 90.,3,an1,0\N,1,rn2,2,90.,3,an2,0\N,1,rn3,2,90.,3,an3,0\N,1,rn4,2,90.,
 3,an4,0\H,3,rch,4,ach,5,180.,0\H,4,rnh,5,anh,6,180.,0\\rn1=1.2636751\r
 n2=1.40241935\rn3=1.18126525\rn4=0.96353718\rch=1.08867037\rnh=1.01550
 867\an1=72.7684716\an2=134.08710722\an3=194.71372635\an4=274.32056351\
 ach=124.72239455\anh=120.22870108\\Version=EM64L-G09RevD.01\State=1-A'

 Normal termination of Gaussian 09 at Fri Nov 29 07:38:15 2013.

 ----------------------------------------------------------------------
 #N Geom=AllCheck Guess=TCheck SCRF=Check GenChk RMP4SDTQ(FC)/Aug-CC-pV
 DZ Freq
 ----------------------------------------------------------------------

 Structure from the checkpoint file:  "/tmp/rdj3/g09-13184/Gau-4752.chk"
 ------------------------------------------------------------------
 1H-tetrazole CH2N4 casno=288948 state=1 config=1 method=4 basis=17
 ------------------------------------------------------------------
 Charge =  0 Multiplicity = 1

                         Standard orientation:
 ---------------------------------------------------------------------
 Center     Atomic      Atomic             Coordinates (Angstroms)
 Number     Number       Type             X           Y           Z
 ---------------------------------------------------------------------
      1          6           0        1.079713    0.241016    0.000000
      2          7           0        0.000000    1.067096    0.000000
      3          7           0       -1.136862    0.312043    0.000000
      4          7           0       -0.731580   -0.942056    0.000000
      5          7           0        0.649204   -1.023059    0.000000
      6          1           0        2.115929    0.574872    0.000000
      7          1           0       -0.059547    2.080857    0.000000
 ---------------------------------------------------------------------

 E2 =    -0.8295557014D+00 EUMP2 =    -0.25761518367215D+03
 E2 =    -0.8291825762D+00 EUMP2 =    -0.25761485380922D+03
 E2 =    -0.8282650914D+00 EUMP2 =    -0.25761489481808D+03
 E2 =    -0.8304851966D+00 EUMP2 =    -0.25761509818249D+03
 E2 =    -0.8300658562D+00 EUMP2 =    -0.25761486799976D+03
 E2 =    -0.8286736941D+00 EUMP2 =    -0.25761518101446D+03
 E2 =    -0.8288015585D+00 EUMP2 =    -0.25761504660384D+03
 E2 =    -0.8299399530D+00 EUMP2 =    -0.25761492232709D+03
 E2 =    -0.8298820025D+00 EUMP2 =    -0.25761497998091D+03
 E2 =    -0.8288495958D+00 EUMP2 =    -0.25761507098193D+03
 SCF Done:  E(RHF) =  -256.785275954     A.U. after   11 cycles
 E2 =    -0.8297797401D+00 EUMP2 =    -0.25761505569387D+03
 SCF Done:  E(RHF) =  -256.786137539     A.U. after   11 cycles
 E2 =    -0.8289543531D+00 EUMP2 =    -0.25761509189176D+03
 SCF Done:  E(RHF) =  -256.785393306     A.U. after   11 cycles
 E2 =    -0.8296807342D+00 EUMP2 =    -0.25761507404011D+03
 SCF Done:  E(RHF) =  -256.786041923     A.U. after   11 cycles
 E2 =    -0.8290574799D+00 EUMP2 =    -0.25761509940298D+03
 SCF Done:  E(RHF) =  -256.785772505     A.U. after   10 cycles
 E2 =    -0.8293770275D+00 EUMP2 =    -0.25761514953293D+03
 SCF Done:  E(RHF) =  -256.785786508     A.U. after   10 cycles
 E2 =    -0.8293688968D+00 EUMP2 =    -0.25761515540480D+03
 SCF Done:  E(RHF) =  -256.785779600     A.U. after   10 cycles
 E2 =    -0.8293746253D+00 EUMP2 =    -0.25761515422580D+03
 SCF Done:  E(RHF) =  -256.785770768     A.U. after   10 cycles
 E2 =    -0.8293748645D+00 EUMP2 =    -0.25761514563252D+03
 SCF Done:  E(RHF) =  -256.785774809     A.U. after   11 cycles
 E2 =    -0.8293729800D+00 EUMP2 =    -0.25761514778852D+03
 SCF Done:  E(RHF) =  -256.785798381     A.U. after    9 cycles
 E2 =    -0.8293673934D+00 EUMP2 =    -0.25761516577450D+03

 Alpha  occ. eigenvalues --  -15.69399 -15.67962 -15.66551 -15.62234 -11.35506
 Alpha  occ. eigenvalues --   -1.47856  -1.25156  -1.18895  -0.90645  -0.88633
 Alpha  occ. eigenvalues --   -0.79355  -0.67260  -0.66643  -0.56884  -0.48496
 Alpha  occ. eigenvalues --   -0.47903  -0.45300  -0.41546
 Alpha virt. eigenvalues --    0.01917   0.04129   0.08069   0.08636   0.10916
 Alpha virt. eigenvalues --    0.11884   0.12674   0.14272   0.15597   0.15768
 Alpha virt. eigenvalues --    0.16660   0.17951   0.19768   0.19886   0.21467

 Mulliken charges:
               1
     1  C    1.124398
     2  N   -0.223794
     3  N   -0.166265
     4  N   -0.235076
     5  N   -0.466681
     6  H   -0.057401
     7  H    0.024820
 Sum of Mulliken charges =   0.00000

 Dipole moment (field-independent basis, Debye):
    X=              2.7017    Y=              4.9245    Z=              0.0256  Tot=              5.6170
 Quadrupole moment (field-independent basis, Debye-Ang):
   XX=            -28.8910   YY=            -26.7232   ZZ=            -29.6213
   XY=              2.1813   XZ=              0.0208   YZ=              0.0470

                      1                      2                      3
                     A"                     A"                     A"
 Frequencies --    551.0774               673.3532               710.2906
 Red. masses --      1.8104                 2.0100                 7.5555
 Frc consts  --      0.3239                 0.5370                 2.2459
 IR Inten    --      0.0000                 0.0000                 0.0000

                      4                      5                      6
                     A"                     A'                     A'
 Frequencies --    813.2723               924.2795               979.4909
 Red. masses --      1.3371                 4.9837                 6.3142
 Frc consts  --      0.5211                 2.5085                 3.5692
 IR Inten    --      0.0000                 0.0000                 0.0000

                      7                      8                      9
                     A'                     A'                     A'
 Frequencies --   1019.3532              1037.2690              1119.9268
 Red. masses --      6.0616                 3.2904                 1.8790
 Frc consts  --      3.7110                 2.0858                 1.3885
 IR Inten    --      0.0000                 0.0000                 0.0000

                     10                     11                     12
                     A'                     A'                     A'
 Frequencies --   1191.4348              1221.7929              1437.4546
 Red. masses --      8.6968                 2.6554                 3.5859
 Frc consts  --      7.2736                 2.3355                 4.3655
 IR Inten    --      0.0000                 0.0000                 0.0000

                     13                     14                     15
                     A'                     A'                     A'
 Frequencies --   1455.7158              3289.7065              3638.5193
 Red. masses --      2.5998                 1.1011                 1.0845
 Frc consts  --      3.2459                 7.0208                 8.4588
 IR Inten    --      0.0000                 0.0000                 0.0000

 - Thermochemistry -
 -------------------
 Temperature   298.150 Kelvin.  Pressure   1.00000 Atm.
 Atom     1 has atomic number  6 and mass  12.00000

 Molecular mass:    70.02795 amu.
 Principal axes and moments of inertia in atomic units:
                           1         2         3
     Eigenvalues --   176.14772 179.62760 355.77532
           X            0.79367   0.60835   0.00000
           Y           -0.60835   0.79367   0.00000
           Z            0.00000   0.00000   1.00000
 This molecule is an asymmetric top.
 Rotational symmetry number  1.
 Rotational temperatures (Kelvin)      0.49171     0.48219     0.24345
 Rotational constants (GHZ):          10.24561    10.04713     5.07270
 Zero-point vibrational energy     120003.0 (Joules/Mol)
                                   28.68141 (Kcal/Mol)
 Warning -- explicit consideration of   1 degrees of freedom as
           vibrations may cause significant error
 Vibrational temperatures:    792.88   968.80  1021.95  1170.12  1329.83
          (Kelvin)           1409.27  1466.62  1492.40  1611.32  1714.21
                             1757.89  2068.17  2094.45  4733.15  5235.01

 Zero-point correction=                           0.045707 (Hartree/Particle)
 Thermal correction to Energy=                    0.049259
 Thermal correction to Enthalpy=                  0.050203
 Thermal correction to Gibbs Free Energy=         0.019544
 Sum of electronic and zero-point Energies=           -257.623466
 Sum of electronic and thermal Energies=              -257.619914
 Sum of electronic and thermal Enthalpies=            -257.618970
 Sum of electronic and thermal Free Energies=         -257.649628

                     E (Thermal)             CV                S
                      KCal/Mol        Cal/Mol-Kelvin    Cal/Mol-Kelvin
 Total                   30.910             11.827             64.527
 Electronic               0.000              0.000              0.000
 Translational            0.889              2.981             38.656
 Rotational               0.889              2.981             23.936
 Vibrational             29.133              5.865              1.935
 Vibration     1          0.906              1.137              0.542

 1\1\GINC-N356\Freq\RMP4SDTQ-FC\Aug-CC-pVDZ\C1H2N4\RDJ3\29-Nov-2013\1\\
 #N Geom=AllCheck Guess=TCheck SCRF=Check GenChk RMP4SDTQ(FC)/Aug-CC-pV
 DZ Freq\\1H-tetrazole CH2N4 casno=288948 state=1 config=1 method=4 bas
 is=17\\0,1\X\X,1,1.\C,1,1.,2,90.\N,1,rn1,2,90.,3,an1,0\N,1,rn2,2,90.,3
 ,an2,0\N,1,rn3,2,90.,3,an3,0\N,1,rn4,2,90.,3,an4,0\H,3,rch,4,ach,5,180
 .,0\H,4,rnh,5,anh,6,180.,0\\rn1=1.2636751\rn2=1.40241935\rn3=1.1812652
 5\rn4=0.96353718\rch=1.08867037\rnh=1.01550867\an1=72.7684716\an2=134.
 08710722\an3=194.71372635\an4=274.32056351\ach=124.72239455\anh=120.22

 Normal termination of Gaussian 09 at Fri Nov 29 13:04:23 2013.
