 Gaussian 09, Revision D.01,
 Gaussian 09:  EM64L-G09RevD.01 24-Apr-2013

 -----------------------------
 #MP4/6-31G* opt=z-matrix freq
 -----------------------------

 -----------------------------------------------------------------
 1H-tetrazole CH2N4 casno=288948 state=1 config=1 method=4 basis=1
 -----------------------------------------------------------------
 Symbolic Z-matrix:
 Charge =  0 Multiplicity = 1

 SCF Done:  E(RHF) =  -256.754076285     A.U. after   15 cycles
 E2 =    -0.7737063668D+00 EUMP2 =    -0.25752778265216D+03
 SCF Done:  E(RHF) =  -256.754076214     A.U. after    8 cycles
 E2 =    -0.7737175947D+00 EUMP2 =    -0.25752779380839D+03
 SCF Done:  E(RHF) =  -256.754076247     A.U. after    8 cycles
 E2 =    -0.7736951461D+00 EUMP2 =    -0.25752777139294D+03
 SCF Done:  E(RHF) =  -256.754076250     A.U. after    8 cycles
 E2 =    -0.7737314519D+00 EUMP2 =    -0.25752780770236D+03
 SCF Done:  E(RHF) =  -256.754076203     A.U. after    9 cycles
 E2 =    -0.7736812856D+00 EUMP2 =    -0.25752775748847D+03
 SCF Done:  E(RHF) =  -256.754076251     A.U. after    7 cycles
 E2 =    -0.7737249213D+00 EUMP2 =    -0.25752780117198D+03
 SCF Done:  E(RHF) =  -256.754076212     A.U. after    8 cycles
 E2 =    -0.7736878299D+00 EUMP2 =    -0.25752776404196D+03
 SCF Done:  E(RHF) =  -256.754076240     A.U. after    8 cycles
 E2 =    -0.7737239332D+00 EUMP2 =    -0.25752780017299D+03
 SCF Done:  E(RHF) =  -256.754076223     A.U. after    9 cycles
 E2 =    -0.7736888154D+00 EUMP2 =    -0.25752776503828D+03
 SCF Done:  E(RHF) =  -256.754076245     A.U. after    8 cycles
 E2 =    -0.7737099151D+00 EUMP2 =    -0.25752778615962D+03
 E2 =    -0.7737028277D+00 EUMP2 =    -0.25752777908768D+03
 E2 =    -0.7737136213D+00 EUMP2 =    -0.25752778985991D+03
 E2 =    -0.7736991038D+00 EUMP2 =    -0.25752777535142D+03
 E2 =    -0.7736995447D+00 EUMP2 =    -0.25752777555199D+03
 E2 =    -0.7737131696D+00 EUMP2 =    -0.25752778925038D+03
 E2 =    -0.7736722856D+00 EUMP2 =    -0.25752774822223D+03
 E2 =    -0.7737404229D+00 EUMP2 =    -0.25752781644933D+03
 E2 =    -0.7737468635D+00 EUMP2 =    -0.25752782295578D+03
 E2 =    -0.7736658627D+00 EUMP2 =    -0.25752774187151D+03
 E2 =    -0.7736993823D+00 EUMP2 =    -0.25752777552334D+03
 Normal termination of Gaussian 09 at Fri Nov 29 13:20:55 2013.

 ----------------------------------------------------------------------
 #N Geom=AllCheck Guess=TCheck SCRF=Check GenChk RMP4SDTQ(FC)/6-31G(d)
 Freq
 ----------------------------------------------------------------------

 Structure from the checkpoint file:  "/tmp/rdj3/g09-13184/Gau-32464.chk"
 -----------------------------------------------------------------
 1H-tetrazole CH2N4 casno=288948 state=1 config=1 method=4 basis=1
 -----------------------------------------------------------------
 Charge =  0 Multiplicity = 1

                         Standard orientation:
 ---------------------------------------------------------------------
 Center     Atomic      Atomic             Coordinates (Angstroms)
 Number     Number       Type             X           Y           Z
 ---------------------------------------------------------------------
      1          6           0        1.074640    0.240556    0.000000
      2          7           0        0.000000    1.062763    0.000000
      3          7           0       -1.134094    0.308386    0.000000
      4          7           0       -0.727652   -0.939626    0.000000
      5          7           0        0.649042   -1.016139    0.000000
      6          1           0        2.105270    0.573016    0.000000
      7          1           0       -0.064188    2.075962    0.000000
 ---------------------------------------------------------------------

 E2 =    -0.7921760597D+00 EUMP2 =    -0.25753541275693D+03
 E2 =    -0.7917296794D+00 EUMP2 =    -0.25753511447128D+03
 E2 =    -0.7909193478D+00 EUMP2 =    -0.25753513902216D+03
 E2 =    -0.7929974511D+00 EUMP2 =    -0.25753534193329D+03
 E2 =    -0.7926596004D+00 EUMP2 =    -0.25753511202522D+03
 E2 =    -0.7912469055D+00 EUMP2 =    -0.25753542623630D+03
 E2 =    -0.7914720370D+00 EUMP2 =    -0.25753527842222D+03
 E2 =    -0.7924385094D+00 EUMP2 =    -0.25753517840721D+03
 E2 =    -0.7924780284D+00 EUMP2 =    -0.25753521375845D+03
 E2 =    -0.7914236575D+00 EUMP2 =    -0.25753533151116D+03
 SCF Done:  E(RHF) =  -256.742923014     A.U. after   11 cycles
 E2 =    -0.7923678046D+00 EUMP2 =    -0.25753529081877D+03
 SCF Done:  E(RHF) =  -256.743816933     A.U. after   11 cycles
 E2 =    -0.7915345163D+00 EUMP2 =    -0.25753535144947D+03
 SCF Done:  E(RHF) =  -256.743045417     A.U. after   11 cycles
 E2 =    -0.7922695382D+00 EUMP2 =    -0.25753531495526D+03
 SCF Done:  E(RHF) =  -256.743717820     A.U. after   11 cycles
 E2 =    -0.7916371906D+00 EUMP2 =    -0.25753535501070D+03
 SCF Done:  E(RHF) =  -256.743436176     A.U. after   10 cycles
 E2 =    -0.7919621714D+00 EUMP2 =    -0.25753539834705D+03
 SCF Done:  E(RHF) =  -256.743450649     A.U. after   11 cycles
 E2 =    -0.7919530158D+00 EUMP2 =    -0.25753540366467D+03
 SCF Done:  E(RHF) =  -256.743443519     A.U. after   11 cycles
 E2 =    -0.7919586177D+00 EUMP2 =    -0.25753540213639D+03
 SCF Done:  E(RHF) =  -256.743434361     A.U. after   11 cycles
 E2 =    -0.7919586085D+00 EUMP2 =    -0.25753539296917D+03
 SCF Done:  E(RHF) =  -256.743438506     A.U. after   11 cycles
 E2 =    -0.7919569718D+00 EUMP2 =    -0.25753539547730D+03
 SCF Done:  E(RHF) =  -256.743462153     A.U. after   10 cycles
 E2 =    -0.7919515713D+00 EUMP2 =    -0.25753541372435D+03

 Alpha  occ. eigenvalues --  -15.69160 -15.67344 -15.65661 -15.61320 -11.34661
 Alpha  occ. eigenvalues --   -1.47904  -1.24896  -1.18784  -0.90341  -0.88409
 Alpha  occ. eigenvalues --   -0.79406  -0.67119  -0.66641  -0.56532  -0.47906
 Alpha  occ. eigenvalues --   -0.47303  -0.45067  -0.41408
 Alpha virt. eigenvalues --    0.13280   0.18183   0.19521   0.24851   0.36266
 Alpha virt. eigenvalues --    0.37194   0.46397   0.49471   0.63363   0.73387
 Alpha virt. eigenvalues --    0.74034   0.82204   0.82393   0.88817   0.91200

 Mulliken charges:
               1
     1  C    0.305801
     2  N   -0.550025
     3  N   -0.030138
     4  N   -0.064659
     5  N   -0.356994
     6  H    0.260828
     7  H    0.435186
 Sum of Mulliken charges =   0.00000

 Dipole moment (field-independent basis, Debye):
    X=              2.7420    Y=              5.0239    Z=              0.0268  Tot=              5.7235
 Quadrupole moment (field-independent basis, Debye-Ang):
   XX=            -28.6866   YY=            -26.5117   ZZ=            -29.0024
   XY=              2.1448   XZ=              0.0196   YZ=              0.0494

                      1                      2                      3
                     A"                     A"                     A"
 Frequencies --    552.9786               681.6726               722.2933
 Red. masses --      1.8919                 2.0147                 7.1455
 Frc consts  --      0.3409                 0.5516                 2.1964
 IR Inten    --      0.0000                 0.0000                 0.0000

                      4                      5                      6
                     A"                     A'                     A'
 Frequencies --    813.5830               946.5610               996.4912
 Red. masses --      1.3070                 5.4423                 6.3257
 Frc consts  --      0.5097                 2.8730                 3.7009
 IR Inten    --      0.0000                 0.0000                 0.0000

                      7                      8                      9
                     A'                     A'                     A'
 Frequencies --   1042.0581              1057.0217              1151.6864
 Red. masses --      7.0912                 3.3206                 1.8158
 Frc consts  --      4.5368                 2.1859                 1.4190
 IR Inten    --      0.0000                 0.0000                 0.0000

                     10                     11                     12
                     A'                     A'                     A'
 Frequencies --   1222.2031              1253.5875              1464.5442
 Red. masses --      8.7440                 2.4822                 3.0113
 Frc consts  --      7.6957                 2.2982                 3.8055
 IR Inten    --      0.0000                 0.0000                 0.0000

                     13                     14                     15
                     A'                     A'                     A'
 Frequencies --   1488.0007              3305.4704              3642.0638
 Red. masses --      3.0248                 1.1007                 1.0842
 Frc consts  --      3.9460                 7.0858                 8.4733
 IR Inten    --      0.0000                 0.0000                 0.0000

 - Thermochemistry -
 -------------------
 Temperature   298.150 Kelvin.  Pressure   1.00000 Atm.
 Atom     1 has atomic number  6 and mass  12.00000

 Molecular mass:    70.02795 amu.
 Principal axes and moments of inertia in atomic units:
                           1         2         3
     Eigenvalues --   174.73984 178.20105 352.94089
           X            0.82632   0.56320   0.00000
           Y           -0.56320   0.82632   0.00000
           Z            0.00000   0.00000   1.00000
 This molecule is an asymmetric top.
 Rotational symmetry number  1.
 Rotational temperatures (Kelvin)      0.49567     0.48605     0.24541
 Rotational constants (GHZ):          10.32816    10.12756     5.11344
 Zero-point vibrational energy     121661.5 (Joules/Mol)
                                   29.07780 (Kcal/Mol)
 Warning -- explicit consideration of   1 degrees of freedom as
           vibrations may cause significant error
 Vibrational temperatures:    795.61   980.77  1039.22  1170.56  1361.89
          (Kelvin)           1433.73  1499.29  1520.82  1657.02  1758.48
                             1803.63  2107.15  2140.90  4755.83  5240.11

 Zero-point correction=                           0.046338 (Hartree/Particle)
 Thermal correction to Energy=                    0.049861
 Thermal correction to Enthalpy=                  0.050805
 Thermal correction to Gibbs Free Energy=         0.020196
 Sum of electronic and zero-point Energies=           -257.538217
 Sum of electronic and thermal Energies=              -257.534694
 Sum of electronic and thermal Enthalpies=            -257.533750
 Sum of electronic and thermal Free Energies=         -257.564360

                     E (Thermal)             CV                S
                      KCal/Mol        Cal/Mol-Kelvin    Cal/Mol-Kelvin
 Total                   31.288             11.613             64.423
 Electronic               0.000              0.000              0.000
 Translational            0.889              2.981             38.656
 Rotational               0.889              2.981             23.912
 Vibrational             29.511              5.651              1.855
 Vibration     1          0.908              1.133              0.538

 Normal termination of Gaussian 09 at Fri Nov 29 14:07:59 2013.
