 Gaussian 09, Revision D.01,
 Gaussian 09:  EM64L-G09RevD.01 24-Apr-2013

 ----------------------------------
 #MP4/6-311G(d,p) opt=z-matrix freq
 ----------------------------------

 ------------------------------------------------------------------
 1H-tetrazole CH2N4 casno=288948 state=1 config=1 method=4 basis=21
 ------------------------------------------------------------------
 Symbolic Z-matrix:
 Charge =  0 Multiplicity = 1

 SCF Done:  E(RHF) =  -256.816035151     A.U. after   14 cycles
 E2 =    -0.8205367116D+00 EUMP2 =    -0.25763657186277D+03
 SCF Done:  E(RHF) =  -256.816034850     A.U. after    7 cycles
 E2 =    -0.8205472362D+00 EUMP2 =    -0.25763658208636D+03
 SCF Done:  E(RHF) =  -256.816035343     A.U. after    8 cycles
 E2 =    -0.8205262015D+00 EUMP2 =    -0.25763656154490D+03
 SCF Done:  E(RHF) =  -256.816033163     A.U. after    8 cycles
 E2 =    -0.8205600581D+00 EUMP2 =    -0.25763659322141D+03
 SCF Done:  E(RHF) =  -256.816037023     A.U. after    8 cycles
 E2 =    -0.8205133634D+00 EUMP2 =    -0.25763655038640D+03
 SCF Done:  E(RHF) =  -256.816033887     A.U. after    7 cycles
 E2 =    -0.8205534809D+00 EUMP2 =    -0.25763658736773D+03
 SCF Done:  E(RHF) =  -256.816036308     A.U. after    8 cycles
 E2 =    -0.8205199584D+00 EUMP2 =    -0.25763655626661D+03
 SCF Done:  E(RHF) =  -256.816034163     A.U. after    8 cycles
 E2 =    -0.8205534413D+00 EUMP2 =    -0.25763658760450D+03
 SCF Done:  E(RHF) =  -256.816036032     A.U. after    8 cycles
 E2 =    -0.8205199916D+00 EUMP2 =    -0.25763655602364D+03
 SCF Done:  E(RHF) =  -256.816035256     A.U. after    8 cycles
 E2 =    -0.8205396141D+00 EUMP2 =    -0.25763657486968D+03
 E2 =    -0.8205338148D+00 EUMP2 =    -0.25763656879732D+03
 E2 =    -0.8205429901D+00 EUMP2 =    -0.25763657747937D+03
 E2 =    -0.8205304184D+00 EUMP2 =    -0.25763656614861D+03
 E2 =    -0.8205320930D+00 EUMP2 =    -0.25763656840342D+03
 E2 =    -0.8205413129D+00 EUMP2 =    -0.25763657483418D+03
 E2 =    -0.8205032404D+00 EUMP2 =    -0.25763654067688D+03
 E2 =    -0.8205701796D+00 EUMP2 =    -0.25763660245929D+03
 E2 =    -0.8205756447D+00 EUMP2 =    -0.25763660713152D+03
 E2 =    -0.8204977775D+00 EUMP2 =    -0.25763653614076D+03
 E2 =    -0.8205287295D+00 EUMP2 =    -0.25763656455188D+03

 1\1\GINC-N356\POpt\RMP4SDTQ-FC\6-311G(d,p)\C1H2N4\RDJ3\29-Nov-2013\1\\
 #MP4/6-311G(d,p) opt=z-matrix freq\\1H-tetrazole CH2N4 casno=288948 st
 ate=1 config=1 method=4 basis=21\\0,1\X\X,1,1.\C,1,1.,2,90.\N,1,rn1,2,
 90.,3,an1,0\N,1,rn2,2,90.,3,an2,0\N,1,rn3,2,90.,3,an3,0\N,1,rn4,2,90.,
 3,an4,0\H,3,rch,4,ach,5,180.,0\H,4,rnh,5,anh,6,180.,0\\rn1=1.26037178\
 rn2=1.3890879\rn3=1.16634925\rn4=0.95657177\rch=1.08093333\rnh=1.01040
 667\an1=72.55857592\an2=133.96763582\an3=194.73125589\an4=274.81454678
 \ach=124.63182983\anh=120.15890949\\Version=EM64L-G09RevD.01\State=1-A

 Normal termination of Gaussian 09 at Fri Nov 29 14:59:15 2013.

 ----------------------------------------------------------------------
 #N Geom=AllCheck Guess=TCheck SCRF=Check GenChk RMP4SDTQ(FC)/6-311G(d,
 p) Freq
 ----------------------------------------------------------------------

 Structure from the checkpoint file:  "/tmp/rdj3/g09-13184/Gau-26009.chk"
 ------------------------------------------------------------------
 1H-tetrazole CH2N4 casno=288948 state=1 config=1 method=4 basis=21
 ------------------------------------------------------------------
 Charge =  0 Multiplicity = 1

                         Standard orientation:
 ---------------------------------------------------------------------
 Center     Atomic      Atomic             Coordinates (Angstroms)
 Number     Number       Type             X           Y           Z
 ---------------------------------------------------------------------
      1          6           0        1.073610    0.237006    0.000000
      2          7           0        0.000000    1.061842    0.000000
      3          7           0       -1.129377    0.308889    0.000000
      4          7           0       -0.727537   -0.934430    0.000000
      5          7           0        0.645199   -1.016359    0.000000
      6          1           0        2.102604    0.568047    0.000000
      7          1           0       -0.062254    2.070329    0.000000
 ---------------------------------------------------------------------

 E2 =    -0.8362435665D+00 EUMP2 =    -0.25764234447608D+03
 E2 =    -0.8358115189D+00 EUMP2 =    -0.25764201711200D+03
 E2 =    -0.8350259587D+00 EUMP2 =    -0.25764209770225D+03
 E2 =    -0.8370400002D+00 EUMP2 =    -0.25764221594507D+03
 E2 =    -0.8366321655D+00 EUMP2 =    -0.25764202910556D+03
 E2 =    -0.8354235922D+00 EUMP2 =    -0.25764234424830D+03
 E2 =    -0.8355056419D+00 EUMP2 =    -0.25764222312007D+03
 E2 =    -0.8365529599D+00 EUMP2 =    -0.25764206894705D+03
 E2 =    -0.8364659090D+00 EUMP2 =    -0.25764214708941D+03
 E2 =    -0.8355812981D+00 EUMP2 =    -0.25764223255793D+03
 SCF Done:  E(RHF) =  -256.805834734     A.U. after   10 cycles
 E2 =    -0.8363839356D+00 EUMP2 =    -0.25764221866972D+03
 SCF Done:  E(RHF) =  -256.806592855     A.U. after   10 cycles
 E2 =    -0.8356646832D+00 EUMP2 =    -0.25764225753836D+03
 SCF Done:  E(RHF) =  -256.805945394     A.U. after   11 cycles
 E2 =    -0.8362930431D+00 EUMP2 =    -0.25764223843736D+03
 SCF Done:  E(RHF) =  -256.806504686     A.U. after   11 cycles
 E2 =    -0.8357597949D+00 EUMP2 =    -0.25764226448073D+03
 SCF Done:  E(RHF) =  -256.806280451     A.U. after   10 cycles
 E2 =    -0.8360344984D+00 EUMP2 =    -0.25764231494907D+03
 SCF Done:  E(RHF) =  -256.806295093     A.U. after   10 cycles
 E2 =    -0.8360264548D+00 EUMP2 =    -0.25764232154811D+03
 SCF Done:  E(RHF) =  -256.806288119     A.U. after   10 cycles
 E2 =    -0.8360319026D+00 EUMP2 =    -0.25764232002204D+03
 SCF Done:  E(RHF) =  -256.806279073     A.U. after   10 cycles
 E2 =    -0.8360317088D+00 EUMP2 =    -0.25764231078209D+03
 SCF Done:  E(RHF) =  -256.806283251     A.U. after   10 cycles
 E2 =    -0.8360300299D+00 EUMP2 =    -0.25764231328051D+03
 SCF Done:  E(RHF) =  -256.806307035     A.U. after   10 cycles
 E2 =    -0.8360245813D+00 EUMP2 =    -0.25764233161673D+03

 Alpha  occ. eigenvalues --  -15.68343 -15.66522 -15.64823 -15.60611 -11.34368
 Alpha  occ. eigenvalues --   -1.48376  -1.25193  -1.19033  -0.90575  -0.88610
 Alpha  occ. eigenvalues --   -0.79613  -0.67373  -0.66927  -0.56721  -0.48049
 Alpha  occ. eigenvalues --   -0.47465  -0.45308  -0.41622
 Alpha virt. eigenvalues --    0.12706   0.12831   0.16562   0.17658   0.32714
 Alpha virt. eigenvalues --    0.35577   0.37306   0.44899   0.51296   0.56529
 Alpha virt. eigenvalues --    0.61203   0.61625   0.68510   0.74751   0.76743

 Mulliken charges:
               1
     1  C    0.312858
     2  N   -0.336721
     3  N   -0.032950
     4  N   -0.071696
     5  N   -0.299714
     6  H    0.156471
     7  H    0.271753
 Sum of Mulliken charges =   0.00000

 Dipole moment (field-independent basis, Debye):
    X=              2.7203    Y=              5.0076    Z=              0.0262  Tot=              5.6988
 Quadrupole moment (field-independent basis, Debye-Ang):
   XX=            -28.8160   YY=            -26.7103   ZZ=            -28.9141
   XY=              2.1214   XZ=              0.0198   YZ=              0.0478

                      1                      2                      3
                     A"                     A"                     A"
 Frequencies --    559.2214               682.6265               720.2349
 Red. masses --      1.9841                 1.9826                 6.1121
 Frc consts  --      0.3656                 0.5443                 1.8680
 IR Inten    --      0.0000                 0.0000                 0.0000

                      4                      5                      6
                     A"                     A'                     A'
 Frequencies --    834.5776               942.4357               994.1695
 Red. masses --      1.3194                 5.0414                 6.4820
 Frc consts  --      0.5415                 2.6382                 3.7747
 IR Inten    --      0.0000                 0.0000                 0.0000

                      7                      8                      9
                     A'                     A'                     A'
 Frequencies --   1037.1491              1056.7033              1138.4993
 Red. masses --      6.0302                 3.1869                 1.8813
 Frc consts  --      3.8218                 2.0967                 1.4367
 IR Inten    --      0.0000                 0.0000                 0.0000

                     10                     11                     12
                     A'                     A'                     A'
 Frequencies --   1219.0150              1243.7334              1451.9230
 Red. masses --     10.6421                 2.6040                 3.4317
 Frc consts  --      9.3174                 2.3733                 4.2623
 IR Inten    --      0.0000                 0.0000                 0.0000

                     13                     14                     15
                     A'                     A'                     A'
 Frequencies --   1478.9857              3294.4600              3672.1996
 Red. masses --      2.6257                 1.1004                 1.0838
 Frc consts  --      3.3839                 7.0367                 8.6111
 IR Inten    --      0.0000                 0.0000                 0.0000

 - Thermochemistry -
 -------------------
 Temperature   298.150 Kelvin.  Pressure   1.00000 Atm.
 Atom     1 has atomic number  6 and mass  12.00000

 Molecular mass:    70.02795 amu.
 Principal axes and moments of inertia in atomic units:
                           1         2         3
     Eigenvalues --   173.79608 177.49672 351.29281
           X            0.80199   0.59734   0.00000
           Y           -0.59734   0.80199   0.00000
           Z            0.00000   0.00000   1.00000
 This molecule is an asymmetric top.
 Rotational symmetry number  1.
 Rotational temperatures (Kelvin)      0.49836     0.48797     0.24656
 Rotational constants (GHZ):          10.38425    10.16774     5.13743
 Zero-point vibrational energy     121576.1 (Joules/Mol)
                                   29.05738 (Kcal/Mol)
 Warning -- explicit consideration of   1 degrees of freedom as
           vibrations may cause significant error
 Vibrational temperatures:    804.59   982.15  1036.26  1200.77  1355.95
          (Kelvin)           1430.39  1492.22  1520.36  1638.04  1753.89
                             1789.45  2088.99  2127.93  4739.99  5283.47

 Zero-point correction=                           0.046306 (Hartree/Particle)
 Thermal correction to Energy=                    0.049823
 Thermal correction to Enthalpy=                  0.050768
 Thermal correction to Gibbs Free Energy=         0.020173
 Sum of electronic and zero-point Energies=           -257.650006
 Sum of electronic and thermal Energies=              -257.646489
 Sum of electronic and thermal Enthalpies=            -257.645544
 Sum of electronic and thermal Free Energies=         -257.676139

                     E (Thermal)             CV                S
                      KCal/Mol        Cal/Mol-Kelvin    Cal/Mol-Kelvin
 Total                   31.265             11.605             64.392
 Electronic               0.000              0.000              0.000
 Translational            0.889              2.981             38.656
 Rotational               0.889              2.981             23.898
 Vibrational             29.487              5.643              1.838
 Vibration     1          0.915              1.120              0.525

 1\1\GINC-N356\Freq\RMP4SDTQ-FC\6-311G(d,p)\C1H2N4\RDJ3\29-Nov-2013\1\\
 #N Geom=AllCheck Guess=TCheck SCRF=Check GenChk RMP4SDTQ(FC)/6-311G(d,
 p) Freq\\1H-tetrazole CH2N4 casno=288948 state=1 config=1 method=4 bas
 is=21\\0,1\X\X,1,1.\C,1,1.,2,90.\N,1,rn1,2,90.,3,an1,0\N,1,rn2,2,90.,3
 ,an2,0\N,1,rn3,2,90.,3,an3,0\N,1,rn4,2,90.,3,an4,0\H,3,rch,4,ach,5,180
 .,0\H,4,rnh,5,anh,6,180.,0\\rn1=1.26037178\rn2=1.3890879\rn3=1.1663492
 5\rn4=0.95657177\rch=1.08093333\rnh=1.01040667\an1=72.55857592\an2=133
 .96763582\an3=194.73125589\an4=274.81454678\ach=124.63182983\anh=120.1

 Normal termination of Gaussian 09 at Fri Nov 29 16:56:55 2013.
