 Gaussian 09, Revision D.01,
 Gaussian 09:  EM64L-G09RevD.01 24-Apr-2013

 ----------------------------
 #MP4/3-21G opt=z-matrix freq
 ----------------------------

 -----------------------------------------------------------------
 1H-tetrazole CH2N4 casno=288948 state=1 config=1 method=4 basis=2
 -----------------------------------------------------------------
 Symbolic Z-matrix:
 Charge =  0 Multiplicity = 1

 SCF Done:  E(RHF) =  -255.261114440     A.U. after   14 cycles
 E2 =    -0.5240768282D+00 EUMP2 =    -0.25578519126841D+03
 SCF Done:  E(RHF) =  -255.261128885     A.U. after    8 cycles
 E2 =    -0.5240926229D+00 EUMP2 =    -0.25578522150829D+03
 SCF Done:  E(RHF) =  -255.261099883     A.U. after    9 cycles
 E2 =    -0.5240610423D+00 EUMP2 =    -0.25578516092554D+03
 SCF Done:  E(RHF) =  -255.261136464     A.U. after    8 cycles
 E2 =    -0.5241024312D+00 EUMP2 =    -0.25578523889529D+03
 SCF Done:  E(RHF) =  -255.261092306     A.U. after    9 cycles
 E2 =    -0.5240512319D+00 EUMP2 =    -0.25578514353755D+03
 SCF Done:  E(RHF) =  -255.261139226     A.U. after    8 cycles
 E2 =    -0.5240962366D+00 EUMP2 =    -0.25578523546289D+03
 SCF Done:  E(RHF) =  -255.261089550     A.U. after    9 cycles
 E2 =    -0.5240574271D+00 EUMP2 =    -0.25578514697750D+03
 SCF Done:  E(RHF) =  -255.261128890     A.U. after    8 cycles
 E2 =    -0.5240984948D+00 EUMP2 =    -0.25578522738488D+03
 SCF Done:  E(RHF) =  -255.261099888     A.U. after    9 cycles
 E2 =    -0.5240551758D+00 EUMP2 =    -0.25578515506342D+03
 SCF Done:  E(RHF) =  -255.261111892     A.U. after    9 cycles
 E2 =    -0.5240810457D+00 EUMP2 =    -0.25578519293745D+03
 E2 =    -0.5240726152D+00 EUMP2 =    -0.25578518953976D+03
 E2 =    -0.5240831614D+00 EUMP2 =    -0.25578519738140D+03
 E2 =    -0.5240704884D+00 EUMP2 =    -0.25578518506666D+03
 E2 =    -0.5240681483D+00 EUMP2 =    -0.25578515582117D+03
 E2 =    -0.5240854984D+00 EUMP2 =    -0.25578522624229D+03
 E2 =    -0.5240523352D+00 EUMP2 =    -0.25578516665115D+03
 E2 =    -0.5241013037D+00 EUMP2 =    -0.25578521530845D+03
 E2 =    -0.5241098601D+00 EUMP2 =    -0.25578523597732D+03
 E2 =    -0.5240437906D+00 EUMP2 =    -0.25578514612157D+03
 E2 =    -0.5240716421D+00 EUMP2 =    -0.25578520248739D+03
 Normal termination of Gaussian 09 at Fri Nov 29 17:01:38 2013.

 ----------------------------------------------------------------------
 #N Geom=AllCheck Guess=TCheck SCRF=Check GenChk RMP4SDTQ(FC)/3-21G Fre
 q
 ----------------------------------------------------------------------

 Structure from the checkpoint file:  "/tmp/rdj3/g09-13184/Gau-21042.chk"
 -----------------------------------------------------------------
 1H-tetrazole CH2N4 casno=288948 state=1 config=1 method=4 basis=2
 -----------------------------------------------------------------
 Charge =  0 Multiplicity = 1

                         Standard orientation:
 ---------------------------------------------------------------------
 Center     Atomic      Atomic             Coordinates (Angstroms)
 Number     Number       Type             X           Y           Z
 ---------------------------------------------------------------------
      1          6           0        1.090303    0.267595    0.000000
      2          7           0        0.000000    1.107085    0.000000
      3          7           0       -1.199182    0.296287    0.000000
      4          7           0       -0.760151   -0.996617    0.000000
      5          7           0        0.732370   -1.027816    0.000000
      6          1           0        2.110935    0.620811    0.000000
      7          1           0       -0.064012    2.121048    0.000000
 ---------------------------------------------------------------------

 E2 =    -0.5696057181D+00 EUMP2 =    -0.25582005428543D+03
 E2 =    -0.5693970617D+00 EUMP2 =    -0.25581984451210D+03
 E2 =    -0.5682770934D+00 EUMP2 =    -0.25581977917979D+03
 E2 =    -0.5707379563D+00 EUMP2 =    -0.25582008593775D+03
 E2 =    -0.5703942017D+00 EUMP2 =    -0.25581983957407D+03
 E2 =    -0.5686096703D+00 EUMP2 =    -0.25582006736885D+03
 E2 =    -0.5688090405D+00 EUMP2 =    -0.25581992601821D+03
 E2 =    -0.5701938108D+00 EUMP2 =    -0.25581988302906D+03
 E2 =    -0.5700132687D+00 EUMP2 =    -0.25581985242306D+03
 E2 =    -0.5689832206D+00 EUMP2 =    -0.25582000938243D+03
 SCF Done:  E(RHF) =  -255.250031506     A.U. after   12 cycles
 E2 =    -0.5699042854D+00 EUMP2 =    -0.25581993579116D+03
 SCF Done:  E(RHF) =  -255.250924737     A.U. after   12 cycles
 E2 =    -0.5690940596D+00 EUMP2 =    -0.25582001879637D+03
 SCF Done:  E(RHF) =  -255.250153970     A.U. after   12 cycles
 E2 =    -0.5698099447D+00 EUMP2 =    -0.25581996391473D+03
 SCF Done:  E(RHF) =  -255.250829169     A.U. after   12 cycles
 E2 =    -0.5691916248D+00 EUMP2 =    -0.25582002079383D+03
 SCF Done:  E(RHF) =  -255.250537106     A.U. after   11 cycles
 E2 =    -0.5695106582D+00 EUMP2 =    -0.25582004776396D+03
 SCF Done:  E(RHF) =  -255.250556658     A.U. after   12 cycles
 E2 =    -0.5695014901D+00 EUMP2 =    -0.25582005814817D+03
 SCF Done:  E(RHF) =  -255.250551702     A.U. after   12 cycles
 E2 =    -0.5695064007D+00 EUMP2 =    -0.25582005810229D+03
 SCF Done:  E(RHF) =  -255.250545473     A.U. after   12 cycles
 E2 =    -0.5695054916D+00 EUMP2 =    -0.25582005096504D+03
 SCF Done:  E(RHF) =  -255.250546960     A.U. after   12 cycles
 E2 =    -0.5695047396D+00 EUMP2 =    -0.25582005169972D+03
 SCF Done:  E(RHF) =  -255.250566976     A.U. after   10 cycles
 E2 =    -0.5694996812D+00 EUMP2 =    -0.25582006665681D+03

 Alpha  occ. eigenvalues --  -15.62692 -15.61712 -15.60901 -15.55861 -11.31145
 Alpha  occ. eigenvalues --   -1.44846  -1.22774  -1.19689  -0.89244  -0.87138
 Alpha  occ. eigenvalues --   -0.79030  -0.64710  -0.64687  -0.55331  -0.48721
 Alpha  occ. eigenvalues --   -0.46287  -0.44386  -0.42339
 Alpha virt. eigenvalues --    0.10807   0.16207   0.22850   0.24939   0.32622
 Alpha virt. eigenvalues --    0.36320   0.42963   0.53645   0.59289   0.91817
 Alpha virt. eigenvalues --    0.93921   1.04250   1.09105   1.20427   1.31583

 Mulliken charges:
               1
     1  C    0.402457
     2  N   -0.666771
     3  N   -0.014510
     4  N   -0.064227
     5  N   -0.389251
     6  H    0.314162
     7  H    0.418140
 Sum of Mulliken charges =   0.00000

 Dipole moment (field-independent basis, Debye):
    X=              2.7386    Y=              5.1415    Z=              0.0310  Tot=              5.8254
 Quadrupole moment (field-independent basis, Debye-Ang):
   XX=            -29.2749   YY=            -27.2855   ZZ=            -29.4277
   XY=              2.5266   XZ=              0.0223   YZ=              0.0561

                      1                      2                      3
                     A"                     A"                     A"
 Frequencies --    565.2540               649.9060               656.6597
 Red. masses --      2.0379                 1.6942                 8.4097
 Frc consts  --      0.3836                 0.4216                 2.1365
 IR Inten    --      0.0000                 0.0000                 0.0000

                      4                      5                      6
                     A'                     A'                     A"
 Frequencies --    685.4558               807.1734               875.3394
 Red. masses --     11.0797                 6.7702                 1.3528
 Frc consts  --      3.0672                 2.5989                 0.6107
 IR Inten    --      0.0000                 0.0000                 0.0000

                      7                      8                      9
                     A'                     A'                     A'
 Frequencies --    886.3701               963.3260               969.9487
 Red. masses --      5.9622                 9.8370                 7.9822
 Frc consts  --      2.7598                 5.3785                 4.4245
 IR Inten    --      0.0000                 0.0000                 0.0000

                     10                     11                     12
                     A'                     A'                     A'
 Frequencies --   1099.1225              1175.6506              1328.8692
 Red. masses --      2.4213                 2.2650                 2.1325
 Frc consts  --      1.7234                 1.8445                 2.2187
 IR Inten    --      0.0000                 0.0000                 0.0000

                     13                     14                     15
                     A'                     A'                     A'
 Frequencies --   1394.6466              3280.2431              3563.8336
 Red. masses --      1.7819                 1.0980                 1.0846
 Frc consts  --      2.0420                 6.9612                 8.1160
 IR Inten    --      0.0000                 0.0000                 0.0000

 - Thermochemistry -
 -------------------
 Temperature   298.150 Kelvin.  Pressure   1.00000 Atm.
 Atom     1 has atomic number  6 and mass  12.00000

 Molecular mass:    70.02795 amu.
 Principal axes and moments of inertia in atomic units:
                           1         2         3
     Eigenvalues --   188.25406 194.59781 382.85187
           X            0.98503   0.17238   0.00000
           Y           -0.17238   0.98503   0.00000
           Z            0.00000   0.00000   1.00000
 This molecule is an asymmetric top.
 Rotational symmetry number  1.
 Rotational temperatures (Kelvin)      0.46009     0.44509     0.22623
 Rotational constants (GHZ):           9.58673     9.27421     4.71394
 Zero-point vibrational energy     113057.9 (Joules/Mol)
                                   27.02148 (Kcal/Mol)
 Warning -- explicit consideration of   1 degrees of freedom as
           vibrations may cause significant error
 Vibrational temperatures:    813.27   935.07   944.79   986.22  1161.34
          (Kelvin)           1259.42  1275.29  1386.01  1395.54  1581.39
                             1691.50  1911.94  2006.58  4719.53  5127.56

 Zero-point correction=                           0.043061 (Hartree/Particle)
 Thermal correction to Energy=                    0.046796
 Thermal correction to Enthalpy=                  0.047740
 Thermal correction to Gibbs Free Energy=         0.016739
 Sum of electronic and zero-point Energies=           -255.812834
 Sum of electronic and thermal Energies=              -255.809100
 Sum of electronic and thermal Enthalpies=            -255.808156
 Sum of electronic and thermal Free Energies=         -255.839157

                     E (Thermal)             CV                S
                      KCal/Mol        Cal/Mol-Kelvin    Cal/Mol-Kelvin
 Total                   29.365             13.035             65.248
 Electronic               0.000              0.000              0.000
 Translational            0.889              2.981             38.656
 Rotational               0.889              2.981             24.154
 Vibrational             27.587              7.074              2.438
 Vibration     1          0.921              1.106              0.513

 Normal termination of Gaussian 09 at Fri Nov 29 17:13:46 2013.
