 Gaussian 09, Revision D.01,
 Gaussian 09:  EM64L-G09RevD.01 24-Apr-2013

 ---------------------------
 #MP4/TZVP opt=z-matrix freq
 ---------------------------

 ------------------------------------------------------------------
 1H-tetrazole CH2N4 casno=288948 state=1 config=1 method=4 basis=32
 ------------------------------------------------------------------
 Symbolic Z-matrix:
 Charge =  0 Multiplicity = 1

 SCF Done:  E(RHF) =  -256.833827633     A.U. after   14 cycles
 E2 =    -0.8219230097D+00 EUMP2 =    -0.25765575064234D+03
 SCF Done:  E(RHF) =  -256.833826994     A.U. after    7 cycles
 E2 =    -0.8219330350D+00 EUMP2 =    -0.25765576002945D+03
 SCF Done:  E(RHF) =  -256.833828163     A.U. after    8 cycles
 E2 =    -0.8219130029D+00 EUMP2 =    -0.25765574116611D+03
 SCF Done:  E(RHF) =  -256.833825237     A.U. after    8 cycles
 E2 =    -0.8219459884D+00 EUMP2 =    -0.25765577122546D+03
 SCF Done:  E(RHF) =  -256.833829914     A.U. after    8 cycles
 E2 =    -0.8219000330D+00 EUMP2 =    -0.25765572994737D+03
 SCF Done:  E(RHF) =  -256.833826672     A.U. after    7 cycles
 E2 =    -0.8219393954D+00 EUMP2 =    -0.25765576606746D+03
 SCF Done:  E(RHF) =  -256.833828487     A.U. after    8 cycles
 E2 =    -0.8219066436D+00 EUMP2 =    -0.25765573513090D+03
 SCF Done:  E(RHF) =  -256.833826098     A.U. after    8 cycles
 E2 =    -0.8219393044D+00 EUMP2 =    -0.25765576540189D+03
 SCF Done:  E(RHF) =  -256.833829062     A.U. after    8 cycles
 E2 =    -0.8219067282D+00 EUMP2 =    -0.25765573579059D+03
 SCF Done:  E(RHF) =  -256.833827466     A.U. after    8 cycles
 E2 =    -0.8219251606D+00 EUMP2 =    -0.25765575262668D+03
 E2 =    -0.8219208644D+00 EUMP2 =    -0.25765574859963D+03
 E2 =    -0.8219291047D+00 EUMP2 =    -0.25765575591755D+03
 E2 =    -0.8219169040D+00 EUMP2 =    -0.25765574527392D+03
 E2 =    -0.8219175173D+00 EUMP2 =    -0.25765574447645D+03
 E2 =    -0.8219284909D+00 EUMP2 =    -0.25765575634001D+03
 E2 =    -0.8218901319D+00 EUMP2 =    -0.25765572167445D+03
 E2 =    -0.8219558914D+00 EUMP2 =    -0.25765577905096D+03
 E2 =    -0.8219611515D+00 EUMP2 =    -0.25765578378488D+03
 E2 =    -0.8218848700D+00 EUMP2 =    -0.25765571706807D+03
 E2 =    -0.8219159784D+00 EUMP2 =    -0.25765574559870D+03
 Normal termination of Gaussian 09 at Fri Nov 29 18:07:28 2013.

 ----------------------------------------------------------------------
 #N Geom=AllCheck Guess=TCheck SCRF=Check GenChk RMP4SDTQ(FC)/TZVP Freq
 ----------------------------------------------------------------------

 Structure from the checkpoint file:  "/tmp/rdj3/g09-13184/Gau-16063.chk"
 ------------------------------------------------------------------
 1H-tetrazole CH2N4 casno=288948 state=1 config=1 method=4 basis=32
 ------------------------------------------------------------------
 Charge =  0 Multiplicity = 1

                         Standard orientation:
 ---------------------------------------------------------------------
 Center     Atomic      Atomic             Coordinates (Angstroms)
 Number     Number       Type             X           Y           Z
 ---------------------------------------------------------------------
      1          6           0        1.071141    0.239025    0.000000
      2          7           0        0.000000    1.061893    0.000000
      3          7           0       -1.130945    0.305779    0.000000
      4          7           0       -0.727258   -0.936084    0.000000
      5          7           0        0.649563   -1.013540    0.000000
      6          1           0        2.096095    0.569947    0.000000
      7          1           0       -0.062455    2.069572    0.000000
 ---------------------------------------------------------------------

 E2 =    -0.8370242993D+00 EUMP2 =    -0.25766096246905D+03
 E2 =    -0.8365995465D+00 EUMP2 =    -0.25766062691857D+03
 E2 =    -0.8358183457D+00 EUMP2 =    -0.25766072469824D+03
 E2 =    -0.8378162108D+00 EUMP2 =    -0.25766081476034D+03
 E2 =    -0.8374332618D+00 EUMP2 =    -0.25766063352866D+03
 E2 =    -0.8361912770D+00 EUMP2 =    -0.25766096680716D+03
 E2 =    -0.8363117923D+00 EUMP2 =    -0.25766083727816D+03
 E2 =    -0.8373147493D+00 EUMP2 =    -0.25766067644645D+03
 E2 =    -0.8372092552D+00 EUMP2 =    -0.25766076266667D+03
 E2 =    -0.8364058737D+00 EUMP2 =    -0.25766083548311D+03
 SCF Done:  E(RHF) =  -256.823677535     A.U. after   11 cycles
 E2 =    -0.8371498992D+00 EUMP2 =    -0.25766082743386D+03
 SCF Done:  E(RHF) =  -256.824402329     A.U. after   11 cycles
 E2 =    -0.8364656358D+00 EUMP2 =    -0.25766086796489D+03
 SCF Done:  E(RHF) =  -256.823773602     A.U. after   11 cycles
 E2 =    -0.8370759559D+00 EUMP2 =    -0.25766084955768D+03
 SCF Done:  E(RHF) =  -256.824329456     A.U. after   11 cycles
 E2 =    -0.8365434436D+00 EUMP2 =    -0.25766087289975D+03
 SCF Done:  E(RHF) =  -256.824109117     A.U. after   10 cycles
 E2 =    -0.8368213259D+00 EUMP2 =    -0.25766093044276D+03
 SCF Done:  E(RHF) =  -256.824122637     A.U. after   10 cycles
 E2 =    -0.8368112373D+00 EUMP2 =    -0.25766093387415D+03
 SCF Done:  E(RHF) =  -256.824115521     A.U. after   10 cycles
 E2 =    -0.8368166792D+00 EUMP2 =    -0.25766093219998D+03
 SCF Done:  E(RHF) =  -256.824105958     A.U. after   10 cycles
 E2 =    -0.8368161444D+00 EUMP2 =    -0.25766092210223D+03
 SCF Done:  E(RHF) =  -256.824110201     A.U. after   11 cycles
 E2 =    -0.8368140875D+00 EUMP2 =    -0.25766092428849D+03
 SCF Done:  E(RHF) =  -256.824133772     A.U. after   10 cycles
 E2 =    -0.8368079743D+00 EUMP2 =    -0.25766094174652D+03

 Alpha  occ. eigenvalues --  -15.68750 -15.67166 -15.65487 -15.61150 -11.34505
 Alpha  occ. eigenvalues --   -1.48790  -1.25493  -1.19569  -0.90897  -0.89044
 Alpha  occ. eigenvalues --   -0.80070  -0.67747  -0.67206  -0.57078  -0.48325
 Alpha  occ. eigenvalues --   -0.47880  -0.45604  -0.42096
 Alpha virt. eigenvalues --    0.11146   0.11818   0.16288   0.16640   0.22201
 Alpha virt. eigenvalues --    0.23648   0.32372   0.32855   0.37763   0.40057
 Alpha virt. eigenvalues --    0.43755   0.47237   0.48966   0.49200   0.51499

 Mulliken charges:
               1
     1  C   -0.065442
     2  N   -0.126181
     3  N   -0.070720
     4  N   -0.057243
     5  N   -0.101908
     6  H    0.144885
     7  H    0.276609
 Sum of Mulliken charges =   0.00000

 Dipole moment (field-independent basis, Debye):
    X=              2.7347    Y=              5.0865    Z=              0.0262  Tot=              5.7751
 Quadrupole moment (field-independent basis, Debye-Ang):
   XX=            -29.1704   YY=            -26.9370   ZZ=            -29.0952
   XY=              2.1890   XZ=              0.0200   YZ=              0.0479

                      1                      2                      3
                     A"                     A"                     A"
 Frequencies --    434.0395               664.7785               696.0576
 Red. masses --      2.0269                 2.1600                 6.2463
 Frc consts  --      0.2250                 0.5624                 1.7830
 IR Inten    --      0.0000                 0.0000                 0.0000

                      4                      5                      6
                     A"                     A'                     A'
 Frequencies --    778.2752               922.7410               985.6922
 Red. masses --      1.2284                 6.4137                 6.8408
 Frc consts  --      0.4384                 3.2175                 3.9160
 IR Inten    --      0.0000                 0.0000                 0.0000

                      7                      8                      9
                     A'                     A'                     A'
 Frequencies --   1011.9481              1041.4450              1140.1970
 Red. masses --      6.1171                 3.5617                 1.9347
 Frc consts  --      3.6908                 2.2760                 1.4819
 IR Inten    --      0.0000                 0.0000                 0.0000

                     10                     11                     12
                     A'                     A'                     A'
 Frequencies --   1199.0514              1243.5115              1444.9372
 Red. masses --      8.1626                 2.4094                 3.0627
 Frc consts  --      6.9144                 2.1951                 3.7675
 IR Inten    --      0.0000                 0.0000                 0.0000

                     13                     14                     15
                     A'                     A'                     A'
 Frequencies --   1476.4542              3310.1855              3661.4851
 Red. masses --      2.5838                 1.1003                 1.0839
 Frc consts  --      3.3186                 7.1031                 8.5619
 IR Inten    --      0.0000                 0.0000                 0.0000

 - Thermochemistry -
 -------------------
 Temperature   298.150 Kelvin.  Pressure   1.00000 Atm.
 Atom     1 has atomic number  6 and mass  12.00000

 Molecular mass:    70.02795 amu.
 Principal axes and moments of inertia in atomic units:
                           1         2         3
     Eigenvalues --   173.84028 177.38392 351.22420
           X            0.83178   0.55511   0.00000
           Y           -0.55511   0.83178   0.00000
           Z            0.00000   0.00000   1.00000
 This molecule is an asymmetric top.
 Rotational symmetry number  1.
 Rotational temperatures (Kelvin)      0.49824     0.48828     0.24661
 Rotational constants (GHZ):          10.38161    10.17421     5.13843
 Zero-point vibrational energy     119691.2 (Joules/Mol)
                                   28.60687 (Kcal/Mol)
 Warning -- explicit consideration of   1 degrees of freedom as
           vibrations may cause significant error
 Vibrational temperatures:    624.49   956.47  1001.47  1119.76  1327.62
          (Kelvin)           1418.19  1455.97  1498.41  1640.49  1725.17
                             1789.13  2078.94  2124.29  4762.61  5268.05

 Zero-point correction=                           0.045588 (Hartree/Particle)
 Thermal correction to Energy=                    0.049244
 Thermal correction to Enthalpy=                  0.050188
 Thermal correction to Gibbs Free Energy=         0.019381
 Sum of electronic and zero-point Energies=           -257.669946
 Sum of electronic and thermal Energies=              -257.666290
 Sum of electronic and thermal Enthalpies=            -257.665345
 Sum of electronic and thermal Free Energies=         -257.696152

                     E (Thermal)             CV                S
                      KCal/Mol        Cal/Mol-Kelvin    Cal/Mol-Kelvin
 Total                   30.901             12.144             64.838
 Electronic               0.000              0.000              0.000
 Translational            0.889              2.981             38.656
 Rotational               0.889              2.981             23.897
 Vibrational             29.123              6.182              2.284
 Vibration     1          0.795              1.396              0.846

 Normal termination of Gaussian 09 at Fri Nov 29 20:33:43 2013.
