 Gaussian 09, Revision D.01,
 Gaussian 09:  EM64L-G09RevD.01 24-Apr-2013

 ------------------------------
 #MP4/cc-pVDZ opt=z-matrix freq
 ------------------------------

 -----------------------------------------------------------------
 1H-tetrazole CH2N4 casno=288948 state=1 config=1 method=4 basis=5
 -----------------------------------------------------------------
 Symbolic Z-matrix:
 Charge =  0 Multiplicity = 1

 SCF Done:  E(RHF) =  -256.780056734     A.U. after   15 cycles
 E2 =    -0.7749059228D+00 EUMP2 =    -0.25755496265635D+03
 SCF Done:  E(RHF) =  -256.780057527     A.U. after    8 cycles
 E2 =    -0.7749180714D+00 EUMP2 =    -0.25755497559817D+03
 SCF Done:  E(RHF) =  -256.780055830     A.U. after    8 cycles
 E2 =    -0.7748937815D+00 EUMP2 =    -0.25755494961195D+03
 SCF Done:  E(RHF) =  -256.780055848     A.U. after    8 cycles
 E2 =    -0.7749309914D+00 EUMP2 =    -0.25755498683958D+03
 SCF Done:  E(RHF) =  -256.780057502     A.U. after    9 cycles
 E2 =    -0.7748808585D+00 EUMP2 =    -0.25755493836002D+03
 SCF Done:  E(RHF) =  -256.780056129     A.U. after    7 cycles
 E2 =    -0.7749243683D+00 EUMP2 =    -0.25755498049715D+03
 SCF Done:  E(RHF) =  -256.780057230     A.U. after    8 cycles
 E2 =    -0.7748874958D+00 EUMP2 =    -0.25755494472599D+03
 SCF Done:  E(RHF) =  -256.780057558     A.U. after    8 cycles
 E2 =    -0.7749245129D+00 EUMP2 =    -0.25755498207074D+03
 SCF Done:  E(RHF) =  -256.780055800     A.U. after    9 cycles
 E2 =    -0.7748873480D+00 EUMP2 =    -0.25755494314848D+03
 SCF Done:  E(RHF) =  -256.780059084     A.U. after    8 cycles
 E2 =    -0.7749095033D+00 EUMP2 =    -0.25755496858739D+03
 E2 =    -0.7749023520D+00 EUMP2 =    -0.25755495666740D+03
 E2 =    -0.7749126187D+00 EUMP2 =    -0.25755497069875D+03
 E2 =    -0.7748992153D+00 EUMP2 =    -0.25755495451713D+03
 E2 =    -0.7749010438D+00 EUMP2 =    -0.25755496034102D+03
 E2 =    -0.7749107788D+00 EUMP2 =    -0.25755496446638D+03
 E2 =    -0.7748715079D+00 EUMP2 =    -0.25755492790523D+03
 E2 =    -0.7749403110D+00 EUMP2 =    -0.25755499677752D+03
 E2 =    -0.7749466163D+00 EUMP2 =    -0.25755500214060D+03
 E2 =    -0.7748652215D+00 EUMP2 =    -0.25755492269718D+03
 E2 =    -0.7748971746D+00 EUMP2 =    -0.25755495238799D+03
 Normal termination of Gaussian 09 at Fri Nov 29 20:53:52 2013.

 ----------------------------------------------------------------------
 #N Geom=AllCheck Guess=TCheck SCRF=Check GenChk RMP4SDTQ(FC)/CC-pVDZ F
 req
 ----------------------------------------------------------------------

 Structure from the checkpoint file:  "/tmp/rdj3/g09-13184/Gau-9600.chk"
 -----------------------------------------------------------------
 1H-tetrazole CH2N4 casno=288948 state=1 config=1 method=4 basis=5
 -----------------------------------------------------------------
 Charge =  0 Multiplicity = 1

                         Standard orientation:
 ---------------------------------------------------------------------
 Center     Atomic      Atomic             Coordinates (Angstroms)
 Number     Number       Type             X           Y           Z
 ---------------------------------------------------------------------
      1          6           0        1.076306    0.236440    0.000000
      2          7           0        0.000000    1.065451    0.000000
      3          7           0       -1.131761    0.311687    0.000000
      4          7           0       -0.730178   -0.936094    0.000000
      5          7           0        0.645474   -1.022555    0.000000
      6          1           0        2.114030    0.571144    0.000000
      7          1           0       -0.056611    2.080785    0.000000
 ---------------------------------------------------------------------

 E2 =    -0.7940422911D+00 EUMP2 =    -0.25756315707165D+03
 E2 =    -0.7936411905D+00 EUMP2 =    -0.25756283171145D+03
 E2 =    -0.7927933828D+00 EUMP2 =    -0.25756287760161D+03
 E2 =    -0.7949011768D+00 EUMP2 =    -0.25756306355959D+03
 E2 =    -0.7945005009D+00 EUMP2 =    -0.25756285301579D+03
 E2 =    -0.7931841363D+00 EUMP2 =    -0.25756314884153D+03
 E2 =    -0.7932564869D+00 EUMP2 =    -0.25756301833654D+03
 E2 =    -0.7944314364D+00 EUMP2 =    -0.25756290166772D+03
 E2 =    -0.7943344742D+00 EUMP2 =    -0.25756296332075D+03
 E2 =    -0.7933434511D+00 EUMP2 =    -0.25756304451305D+03
 SCF Done:  E(RHF) =  -256.768801912     A.U. after   11 cycles
 E2 =    -0.7942342607D+00 EUMP2 =    -0.25756303617245D+03
 SCF Done:  E(RHF) =  -256.769622837     A.U. after   11 cycles
 E2 =    -0.7934459017D+00 EUMP2 =    -0.25756306873872D+03
 SCF Done:  E(RHF) =  -256.768915775     A.U. after   11 cycles
 E2 =    -0.7941393527D+00 EUMP2 =    -0.25756305512746D+03
 SCF Done:  E(RHF) =  -256.769530530     A.U. after   11 cycles
 E2 =    -0.7935451908D+00 EUMP2 =    -0.25756307572114D+03
 SCF Done:  E(RHF) =  -256.769278398     A.U. after   10 cycles
 E2 =    -0.7938503534D+00 EUMP2 =    -0.25756312875136D+03
 SCF Done:  E(RHF) =  -256.769292506     A.U. after   10 cycles
 E2 =    -0.7938423378D+00 EUMP2 =    -0.25756313484388D+03
 SCF Done:  E(RHF) =  -256.769285780     A.U. after   10 cycles
 E2 =    -0.7938476726D+00 EUMP2 =    -0.25756313345254D+03
 SCF Done:  E(RHF) =  -256.769276464     A.U. after   10 cycles
 E2 =    -0.7938476399D+00 EUMP2 =    -0.25756312410343D+03
 SCF Done:  E(RHF) =  -256.769280750     A.U. after   11 cycles
 E2 =    -0.7938461751D+00 EUMP2 =    -0.25756312692509D+03
 SCF Done:  E(RHF) =  -256.769304520     A.U. after   10 cycles
 E2 =    -0.7938407014D+00 EUMP2 =    -0.25756314522109D+03

 Alpha  occ. eigenvalues --  -15.68595 -15.66633 -15.64954 -15.60934 -11.34802
 Alpha  occ. eigenvalues --   -1.47773  -1.24789  -1.18542  -0.90062  -0.88151
 Alpha  occ. eigenvalues --   -0.78919  -0.66766  -0.66459  -0.56277  -0.47668
 Alpha  occ. eigenvalues --   -0.47154  -0.44922  -0.41167
 Alpha virt. eigenvalues --    0.13282   0.15523   0.18118   0.19474   0.34287
 Alpha virt. eigenvalues --    0.37013   0.42807   0.47136   0.59000   0.65817
 Alpha virt. eigenvalues --    0.66525   0.75238   0.79195   0.81824   0.87186

 Mulliken charges:
               1
     1  C    0.314080
     2  N   -0.173432
     3  N   -0.061289
     4  N   -0.074081
     5  N   -0.267981
     6  H    0.097263
     7  H    0.165440
 Sum of Mulliken charges =   0.00000

 Dipole moment (field-independent basis, Debye):
    X=              2.6886    Y=              4.9270    Z=              0.0255  Tot=              5.6129
 Quadrupole moment (field-independent basis, Debye-Ang):
   XX=            -28.6316   YY=            -26.4726   ZZ=            -28.8062
   XY=              2.0911   XZ=              0.0197   YZ=              0.0464

                      1                      2                      3
                     A"                     A"                     A"
 Frequencies --    547.3502               681.3848               725.5771
 Red. masses --      1.8003                 2.1041                 6.9230
 Frc consts  --      0.3178                 0.5756                 2.1474
 IR Inten    --      0.0000                 0.0000                 0.0000

                      4                      5                      6
                     A"                     A'                     A'
 Frequencies --    829.9288               940.6903               989.9223
 Red. masses --      1.3262                 4.7276                 5.8616
 Frc consts  --      0.5382                 2.4648                 3.3843
 IR Inten    --      0.0000                 0.0000                 0.0000

                      7                      8                      9
                     A'                     A'                     A'
 Frequencies --   1038.2914              1049.2558              1131.1575
 Red. masses --      5.9198                 2.9053                 1.9191
 Frc consts  --      3.7600                 1.8846                 1.4467
 IR Inten    --      0.0000                 0.0000                 0.0000

                     10                     11                     12
                     A'                     A'                     A'
 Frequencies --   1224.9768              1237.7236              1453.9090
 Red. masses --     11.1232                 2.6015                 2.7971
 Frc consts  --      9.8341                 2.3481                 3.4836
 IR Inten    --      0.0000                 0.0000                 0.0000

                     13                     14                     15
                     A'                     A'                     A'
 Frequencies --   1477.0733              3304.1295              3654.8537
 Red. masses --      3.7513                 1.1007                 1.0847
 Frc consts  --      4.8221                 7.0802                 8.5369
 IR Inten    --      0.0000                 0.0000                 0.0000

 - Thermochemistry -
 -------------------
 Temperature   298.150 Kelvin.  Pressure   1.00000 Atm.
 Atom     1 has atomic number  6 and mass  12.00000

 Molecular mass:    70.02795 amu.
 Principal axes and moments of inertia in atomic units:
                           1         2         3
     Eigenvalues --   174.86754 178.73273 353.60027
           X            0.75518   0.65552   0.00000
           Y           -0.65552   0.75518   0.00000
           Z            0.00000   0.00000   1.00000
 This molecule is an asymmetric top.
 Rotational symmetry number  1.
 Rotational temperatures (Kelvin)      0.49531     0.48460     0.24495
 Rotational constants (GHZ):          10.32062    10.09743     5.10390
 Zero-point vibrational energy     121338.6 (Joules/Mol)
                                   29.00061 (Kcal/Mol)
 Warning -- explicit consideration of   1 degrees of freedom as
           vibrations may cause significant error
 Vibrational temperatures:    787.51   980.36  1043.94  1194.08  1353.44
          (Kelvin)           1424.28  1493.87  1509.64  1627.48  1762.47
                             1780.81  2091.85  2125.18  4753.90  5258.51

 Zero-point correction=                           0.046215 (Hartree/Particle)
 Thermal correction to Energy=                    0.049742
 Thermal correction to Enthalpy=                  0.050687
 Thermal correction to Gibbs Free Energy=         0.020069
 Sum of electronic and zero-point Energies=           -257.567340
 Sum of electronic and thermal Energies=              -257.563813
 Sum of electronic and thermal Enthalpies=            -257.562868
 Sum of electronic and thermal Free Energies=         -257.593486

                     E (Thermal)             CV                S
                      KCal/Mol        Cal/Mol-Kelvin    Cal/Mol-Kelvin
 Total                   31.214             11.649             64.441
 Electronic               0.000              0.000              0.000
 Translational            0.889              2.981             38.656
 Rotational               0.889              2.981             23.917
 Vibrational             29.436              5.687              1.868
 Vibration     1          0.903              1.145              0.550

 Normal termination of Gaussian 09 at Fri Nov 29 21:44:48 2013.
