 Gaussian 09, Revision D.01,
 Gaussian 09:  EM64L-G09RevD.01 24-Apr-2013

 ------------------------------
 #MP4/cc-pVTZ opt=z-matrix freq
 ------------------------------

 -----------------------------------------------------------------
 1H-tetrazole CH2N4 casno=288948 state=1 config=1 method=4 basis=6
 -----------------------------------------------------------------
 Symbolic Z-matrix:
 Charge =  0 Multiplicity = 1

 SCF Done:  E(RHF) =  -256.848466948     A.U. after   14 cycles
 E2 =    -0.9516515969D+00 EUMP2 =    -0.25780011854461D+03
 SCF Done:  E(RHF) =  -256.848465220     A.U. after    7 cycles
 E2 =    -0.9516613524D+00 EUMP2 =    -0.25780012657200D+03
 SCF Done:  E(RHF) =  -256.848468569     A.U. after    7 cycles
 E2 =    -0.9516418535D+00 EUMP2 =    -0.25780011042273D+03
 SCF Done:  E(RHF) =  -256.848463869     A.U. after    7 cycles
 E2 =    -0.9516741541D+00 EUMP2 =    -0.25780013802344D+03
 SCF Done:  E(RHF) =  -256.848469912     A.U. after    8 cycles
 E2 =    -0.9516290781D+00 EUMP2 =    -0.25780009899042D+03
 SCF Done:  E(RHF) =  -256.848465148     A.U. after    6 cycles
 E2 =    -0.9516677227D+00 EUMP2 =    -0.25780013287027D+03
 SCF Done:  E(RHF) =  -256.848468642     A.U. after    8 cycles
 E2 =    -0.9516355090D+00 EUMP2 =    -0.25780010415115D+03
 SCF Done:  E(RHF) =  -256.848465459     A.U. after    7 cycles
 E2 =    -0.9516673405D+00 EUMP2 =    -0.25780013279973D+03
 SCF Done:  E(RHF) =  -256.848468331     A.U. after    8 cycles
 E2 =    -0.9516359042D+00 EUMP2 =    -0.25780010423519D+03
 SCF Done:  E(RHF) =  -256.848466544     A.U. after    7 cycles
 E2 =    -0.9516537396D+00 EUMP2 =    -0.25780012028401D+03
 E2 =    -0.9516495061D+00 EUMP2 =    -0.25780011679367D+03
 E2 =    -0.9516575957D+00 EUMP2 =    -0.25780012293368D+03
 E2 =    -0.9516455856D+00 EUMP2 =    -0.25780011406138D+03
 E2 =    -0.9516472247D+00 EUMP2 =    -0.25780011452515D+03
 E2 =    -0.9516559778D+00 EUMP2 =    -0.25780012211680D+03
 E2 =    -0.9516178872D+00 EUMP2 =    -0.25780008710595D+03
 E2 =    -0.9516853292D+00 EUMP2 =    -0.25780014944110D+03
 E2 =    -0.9516904771D+00 EUMP2 =    -0.25780015231820D+03
 E2 =    -0.9516127618D+00 EUMP2 =    -0.25780008437944D+03
 E2 =    -0.9516436583D+00 EUMP2 =    -0.25780011184164D+03
 Normal termination of Gaussian 09 at Sat Nov 30 06:10:00 2013.

 ----------------------------------------------------------------------
 #N Geom=AllCheck Guess=TCheck SCRF=Check GenChk RMP4SDTQ(FC)/CC-pVTZ F
 req
 ----------------------------------------------------------------------

 Structure from the checkpoint file:  "/tmp/rdj3/g09-13184/Gau-4243.chk"
 -----------------------------------------------------------------
 1H-tetrazole CH2N4 casno=288948 state=1 config=1 method=4 basis=6
 -----------------------------------------------------------------
 Charge =  0 Multiplicity = 1

                         Standard orientation:
 ---------------------------------------------------------------------
 Center     Atomic      Atomic             Coordinates (Angstroms)
 Number     Number       Type             X           Y           Z
 ---------------------------------------------------------------------
      1          6           0        1.069124    0.237966    0.000000
      2          7           0        0.000000    1.059190    0.000000
      3          7           0       -1.126700    0.308217    0.000000
      4          7           0       -0.725389   -0.933652    0.000000
      5          7           0        0.645051   -1.013805    0.000000
      6          1           0        2.093446    0.567854    0.000000
      7          1           0       -0.058923    2.064703    0.000000
 ---------------------------------------------------------------------

 E2 =    -0.9656560948D+00 EUMP2 =    -0.25780494098716D+03
 E2 =    -0.9652067357D+00 EUMP2 =    -0.25780460988598D+03
 E2 =    -0.9644344887D+00 EUMP2 =    -0.25780469089754D+03
 E2 =    -0.9664408543D+00 EUMP2 =    -0.25780481391881D+03
 E2 =    -0.9660140162D+00 EUMP2 =    -0.25780462344885D+03
 E2 =    -0.9648501500D+00 EUMP2 =    -0.25780493923278D+03
 E2 =    -0.9649412642D+00 EUMP2 =    -0.25780481291247D+03
 E2 =    -0.9659254869D+00 EUMP2 =    -0.25780466820004D+03
 E2 =    -0.9658252636D+00 EUMP2 =    -0.25780475174170D+03
 E2 =    -0.9650301449D+00 EUMP2 =    -0.25780481467494D+03
 SCF Done:  E(RHF) =  -256.839053594     A.U. after   10 cycles
 E2 =    -0.9657656113D+00 EUMP2 =    -0.25780481920479D+03
 SCF Done:  E(RHF) =  -256.839753798     A.U. after   10 cycles
 E2 =    -0.9650901018D+00 EUMP2 =    -0.25780484390008D+03
 SCF Done:  E(RHF) =  -256.839145203     A.U. after    9 cycles
 E2 =    -0.9656917805D+00 EUMP2 =    -0.25780483698385D+03
 SCF Done:  E(RHF) =  -256.839684654     A.U. after    9 cycles
 E2 =    -0.9651682252D+00 EUMP2 =    -0.25780485287940D+03
 SCF Done:  E(RHF) =  -256.839470993     A.U. after    9 cycles
 E2 =    -0.9654358340D+00 EUMP2 =    -0.25780490682734D+03
 SCF Done:  E(RHF) =  -256.839485425     A.U. after    9 cycles
 E2 =    -0.9654284049D+00 EUMP2 =    -0.25780491383031D+03
 SCF Done:  E(RHF) =  -256.839478685     A.U. after    9 cycles
 E2 =    -0.9654337760D+00 EUMP2 =    -0.25780491246055D+03
 SCF Done:  E(RHF) =  -256.839469600     A.U. after    9 cycles
 E2 =    -0.9654338696D+00 EUMP2 =    -0.25780490346982D+03
 SCF Done:  E(RHF) =  -256.839473922     A.U. after    9 cycles
 E2 =    -0.9654322597D+00 EUMP2 =    -0.25780490618184D+03
 SCF Done:  E(RHF) =  -256.839497730     A.U. after    9 cycles
 E2 =    -0.9654269618D+00 EUMP2 =    -0.25780492469153D+03

 Alpha  occ. eigenvalues --  -15.68231 -15.66499 -15.64966 -15.60619 -11.33922
 Alpha  occ. eigenvalues --   -1.48195  -1.25062  -1.18773  -0.90458  -0.88547
 Alpha  occ. eigenvalues --   -0.79559  -0.67258  -0.67082  -0.56680  -0.47965
 Alpha  occ. eigenvalues --   -0.47410  -0.45311  -0.41532
 Alpha virt. eigenvalues --    0.11594   0.12780   0.15688   0.17244   0.26837
 Alpha virt. eigenvalues --    0.29632   0.34479   0.40222   0.42477   0.46798
 Alpha virt. eigenvalues --    0.51535   0.54899   0.56222   0.57467   0.59258

 Mulliken charges:
               1
     1  C    0.002889
     2  N   -0.063440
     3  N   -0.083975
     4  N   -0.063740
     5  N   -0.199062
     6  H    0.185572
     7  H    0.221757
 Sum of Mulliken charges =   0.00000

 Dipole moment (field-independent basis, Debye):
    X=              2.6362    Y=              4.8976    Z=              0.0253  Tot=              5.5621
 Quadrupole moment (field-independent basis, Debye-Ang):
   XX=            -28.7466   YY=            -26.4829   ZZ=            -28.8771
   XY=              2.1018   XZ=              0.0200   YZ=              0.0465

                      1                      2                      3
                     A"                     A"                     A"
 Frequencies --    569.6754               684.4347               728.3527
 Red. masses --      1.7617                 2.0698                 7.1070
 Frc consts  --      0.3368                 0.5713                 2.2214
 IR Inten    --      0.0000                 0.0000                 0.0000

                      4                      5                      6
                     A"                     A'                     A'
 Frequencies --    851.2069               937.1064               989.5457
 Red. masses --      1.3535                 5.3574                 6.1259
 Frc consts  --      0.5778                 2.7719                 3.5342
 IR Inten    --      0.0000                 0.0000                 0.0000

                      7                      8                      9
                     A'                     A'                     A'
 Frequencies --   1029.1769              1045.9722              1135.6349
 Red. masses --      6.5193                 3.1735                 1.9188
 Frc consts  --      4.0685                 2.0456                 1.4580
 IR Inten    --      0.0000                 0.0000                 0.0000

                     10                     11                     12
                     A'                     A'                     A'
 Frequencies --   1203.5522              1238.0222              1445.9356
 Red. masses --      8.6776                 2.5303                 2.8250
 Frc consts  --      7.4059                 2.2849                 3.4798
 IR Inten    --      0.0000                 0.0000                 0.0000

                     13                     14                     15
                     A'                     A'                     A'
 Frequencies --   1470.5606              3293.6759              3659.3518
 Red. masses --      3.2190                 1.1007                 1.0841
 Frc consts  --      4.1015                 7.0351                 8.5531
 IR Inten    --      0.0000                 0.0000                 0.0000

 - Thermochemistry -
 -------------------
 Temperature   298.150 Kelvin.  Pressure   1.00000 Atm.
 Atom     1 has atomic number  6 and mass  12.00000

 Molecular mass:    70.02795 amu.
 Principal axes and moments of inertia in atomic units:
                           1         2         3
     Eigenvalues --   173.02287 176.55437 349.57725
           X            0.77758   0.62878   0.00000
           Y           -0.62878   0.77758   0.00000
           Z            0.00000   0.00000   1.00000
 This molecule is an asymmetric top.
 Rotational symmetry number  1.
 Rotational temperatures (Kelvin)      0.50059     0.49058     0.24777
 Rotational constants (GHZ):          10.43065    10.22201     5.16264
 Zero-point vibrational energy     121314.5 (Joules/Mol)
                                   28.99487 (Kcal/Mol)
 Warning -- explicit consideration of   1 degrees of freedom as
           vibrations may cause significant error
 Vibrational temperatures:    819.63   984.75  1047.94  1224.70  1348.29
          (Kelvin)           1423.73  1480.75  1504.92  1633.92  1731.64
                             1781.24  2080.38  2115.81  4738.86  5264.98

 Zero-point correction=                           0.046206 (Hartree/Particle)
 Thermal correction to Energy=                    0.049715
 Thermal correction to Enthalpy=                  0.050659
 Thermal correction to Gibbs Free Energy=         0.020085
 Sum of electronic and zero-point Energies=           -257.817652
 Sum of electronic and thermal Energies=              -257.814143
 Sum of electronic and thermal Enthalpies=            -257.813198
 Sum of electronic and thermal Free Energies=         -257.843773

                     E (Thermal)             CV                S
                      KCal/Mol        Cal/Mol-Kelvin    Cal/Mol-Kelvin
 Total                   31.197             11.588             64.350
 Electronic               0.000              0.000              0.000
 Translational            0.889              2.981             38.656
 Rotational               0.889              2.981             23.883
 Vibrational             29.419              5.626              1.811
 Vibration     1          0.926              1.097              0.505

 Normal termination of Gaussian 09 at Sat Nov 30 23:32:33 2013.
