 Gaussian 09, Revision D.01,
 Gaussian 09:  EM64L-G09RevD.01 24-Apr-2013

 ------------------------------
 #LSDA/STO-3G opt=z-matrix freq
 ------------------------------

 -------------------------------------------------------------------
 1H-tetrazole CH2N4 casno=288948 state=1 config=1 method=51 basis=20
 -------------------------------------------------------------------
 Symbolic Z-matrix:
 Charge =  0 Multiplicity = 1

 SCF Done:  E(RS-VWN) =  -253.464909979     A.U. after   14 cycles
 SCF Done:  E(RS-VWN) =  -253.513230479     A.U. after   15 cycles
 SCF Done:  E(RS-VWN) =  -253.516723620     A.U. after   14 cycles
 SCF Done:  E(RS-VWN) =  -253.516731462     A.U. after   13 cycles
 SCF Done:  E(RS-VWN) =  -253.517520848     A.U. after   13 cycles
 SCF Done:  E(RS-VWN) =  -253.517549501     A.U. after   10 cycles
 SCF Done:  E(RS-VWN) =  -253.517558577     A.U. after   10 cycles
 SCF Done:  E(RS-VWN) =  -253.517562059     A.U. after    9 cycles
 SCF Done:  E(RS-VWN) =  -253.517562603     A.U. after    8 cycles
 SCF Done:  E(RS-VWN) =  -253.517562698     A.U. after    7 cycles
 Optimization completed.
    -- Stationary point found.
 Normal termination of Gaussian 09 at Mon Nov 25 17:30:55 2013.

 -----------------------------------------------------------------
 #N Geom=AllCheck Guess=TCheck SCRF=Check GenChk RSVWN/STO-3G Freq
 -----------------------------------------------------------------

 Structure from the checkpoint file:  "/tmp/rdj3/g09-23219/Gau-30467.chk"
 -------------------------------------------------------------------
 1H-tetrazole CH2N4 casno=288948 state=1 config=1 method=51 basis=20
 -------------------------------------------------------------------
 Charge =  0 Multiplicity = 1

                         Standard orientation:
 ---------------------------------------------------------------------
 Center     Atomic      Atomic             Coordinates (Angstroms)
 Number     Number       Type             X           Y           Z
 ---------------------------------------------------------------------
      1          6           0        1.099985    0.258760    0.000000
      2          7           0        0.000000    1.098803    0.000000
      3          7           0       -1.196735    0.316657    0.000000
      4          7           0       -0.747994   -0.986767    0.000000
      5          7           0        0.701626   -1.046826    0.000000
      6          1           0        2.137631    0.622777    0.000000
      7          1           0       -0.035822    2.151593    0.000000
 ---------------------------------------------------------------------

 SCF Done:  E(RS-VWN) =  -253.517562698     A.U. after    1 cycles

 The electronic state is 1-A'.
 Alpha  occ. eigenvalues --  -13.83301 -13.75161 -13.72547 -13.70780  -9.71103
 Alpha  occ. eigenvalues --   -0.98117  -0.81488  -0.76932  -0.57499  -0.55747
 Alpha  occ. eigenvalues --   -0.49837  -0.40340  -0.37602  -0.25276  -0.22907
 Alpha  occ. eigenvalues --   -0.21959  -0.19295  -0.17404
 Alpha virt. eigenvalues --   -0.00810   0.03037   0.14817   0.17621   0.25992
 Alpha virt. eigenvalues --    0.27642   0.29993   0.41941   0.48265

 Mulliken charges:
               1
     1  C    0.032055
     2  N   -0.183833
     3  N   -0.051622
     4  N   -0.067206
     5  N   -0.145987
     6  H    0.144869
     7  H    0.271724
 Sum of Mulliken charges =   0.00000

 Dipole moment (field-independent basis, Debye):
    X=              2.1122    Y=              4.4784    Z=              0.0000  Tot=              4.9515
 Quadrupole moment (field-independent basis, Debye-Ang):
   XX=            -27.2065   YY=            -24.2370   ZZ=            -25.9406
   XY=              1.7743   XZ=              0.0000   YZ=              0.0000

  Exact polarizability:  24.965   1.176  25.665   0.000   0.000   6.236
 Approx polarizability:  72.402  -2.132  83.418   0.000   0.000  10.962

                      1                      2                      3
                     A"                     A"                     A"
 Frequencies --    515.4009               631.9203               648.8320
 Red. masses --      1.9972                 1.9437                 7.3156
 Frc consts  --      0.3126                 0.4573                 1.8145
 IR Inten    --     76.7611                17.5461                 9.7175

                      4                      5                      6
                     A"                     A'                     A'
 Frequencies --    807.2159               887.1563               930.3561
 Red. masses --      1.2789                 5.4272                 4.8959
 Frc consts  --      0.4910                 2.5167                 2.4968
 IR Inten    --     14.7564                 0.5776                 0.2276

                      7                      8                      9
                     A'                     A'                     A'
 Frequencies --    994.1673              1012.3820              1106.2215
 Red. masses --      3.9536                 4.6183                 1.7133
 Frc consts  --      2.3023                 2.7888                 1.2353
 IR Inten    --     16.0768                14.6924                 6.1064

                     10                     11                     12
                     A'                     A'                     A'
 Frequencies --   1156.9988              1213.9171              1427.6555
 Red. masses --      4.7253                 2.9325                 3.7414
 Frc consts  --      3.7269                 2.5460                 4.4929
 IR Inten    --      2.7389                 4.1426                20.9452

                     13                     14                     15
                     A'                     A'                     A'
 Frequencies --   1453.0700              3473.8732              3667.2252
 Red. masses --      3.8902                 1.1005                 1.0867
 Frc consts  --      4.8394                 7.8248                 8.6109
 IR Inten    --     21.9720                44.5690                77.1339

 - Thermochemistry -
 -------------------
 Temperature   298.150 Kelvin.  Pressure   1.00000 Atm.
 Atom     1 has atomic number  6 and mass  12.00000

 Molecular mass:    70.02795 amu.
 Principal axes and moments of inertia in atomic units:
                           1         2         3
     Eigenvalues --   188.09937 193.60959 381.70896
           X            0.87209   0.48934   0.00000
           Y           -0.48934   0.87209   0.00000
           Z            0.00000   0.00000   1.00000
 This molecule is an asymmetric top.
 Rotational symmetry number  1.
 Rotational temperatures (Kelvin)      0.46047     0.44736     0.22691
 Rotational constants (GHZ):           9.59462     9.32155     4.72806
 Zero-point vibrational energy     119186.3 (Joules/Mol)
                                   28.48621 (Kcal/Mol)
 Warning -- explicit consideration of   1 degrees of freedom as
           vibrations may cause significant error
 Vibrational temperatures:    741.55   909.19   933.52  1161.40  1276.42
          (Kelvin)           1338.57  1430.38  1456.59  1591.60  1664.66
                             1746.55  2054.08  2090.64  4998.12  5276.31

 Zero-point correction=                           0.045396 (Hartree/Particle)
 Thermal correction to Energy=                    0.049046
 Thermal correction to Enthalpy=                  0.049990
 Thermal correction to Gibbs Free Energy=         0.019093
 Sum of electronic and zero-point Energies=           -253.472167
 Sum of electronic and thermal Energies=              -253.468517
 Sum of electronic and thermal Enthalpies=            -253.467572
 Sum of electronic and thermal Free Energies=         -253.498470

                     E (Thermal)             CV                S
                      KCal/Mol        Cal/Mol-Kelvin    Cal/Mol-Kelvin
 Total                   30.777             12.327             65.029
 Electronic               0.000              0.000              0.000
 Translational            0.889              2.981             38.656
 Rotational               0.889              2.981             24.145
 Vibrational             28.999              6.365              2.228
 Vibration     1          0.870              1.216              0.621

 Normal termination of Gaussian 09 at Mon Nov 25 17:30:57 2013.
