 Gaussian 09, Revision D.01,
 Gaussian 09:  EM64L-G09RevD.01 24-Apr-2013

 --------------------------
 #LSDA/6-311G(d,p) opt freq
 --------------------------

 -------------------------------------------------------------------
 1H-tetrazole CH2N4 casno=288948 state=1 config=1 method=51 basis=21
 -------------------------------------------------------------------
 Symbolic Z-matrix:
 Charge =  0 Multiplicity = 1

 SCF Done:  E(RS-VWN) =  -256.949584919     A.U. after   15 cycles
 SCF Done:  E(RS-VWN) =  -256.952181554     A.U. after   13 cycles
 SCF Done:  E(RS-VWN) =  -256.952267973     A.U. after   10 cycles
 SCF Done:  E(RS-VWN) =  -256.952287706     A.U. after   10 cycles
 SCF Done:  E(RS-VWN) =  -256.952294387     A.U. after    9 cycles
 SCF Done:  E(RS-VWN) =  -256.952295623     A.U. after    9 cycles
 Optimization completed.
    -- Stationary point found.
 Normal termination of Gaussian 09 at Mon Dec 16 15:11:48 2013.

 ----------------------------------------------------------------------
 #N Geom=AllCheck Guess=TCheck SCRF=Check GenChk RSVWN/6-311G(d,p) Freq
 ----------------------------------------------------------------------

 Structure from the checkpoint file:  "/tmp/rdj3/g09-18029/Gau-20069.chk"
 -------------------------------------------------------------------
 1H-tetrazole CH2N4 casno=288948 state=1 config=1 method=51 basis=21
 -------------------------------------------------------------------
 Charge =  0 Multiplicity = 1

                         Standard orientation:
 ---------------------------------------------------------------------
 Center     Atomic      Atomic             Coordinates (Angstroms)
 Number     Number       Type             X           Y           Z
 ---------------------------------------------------------------------
      1          6           0        1.062915    0.232953    0.000000
      2          7           0        0.000000    1.046951    0.000000
      3          7           0       -1.112586    0.303066    0.000000
      4          7           0       -0.717163   -0.921147    0.000000
      5          7           0        0.627659   -1.002895    0.000000
      6          1           0        2.100273    0.556901    0.000000
      7          1           0       -0.063138    2.063559    0.000000
 ---------------------------------------------------------------------

 SCF Done:  E(RS-VWN) =  -256.952295623     A.U. after    1 cycles

 The electronic state is 1-A'.
 Alpha  occ. eigenvalues --  -13.99129 -13.94933 -13.93212 -13.90714  -9.88886
 Alpha  occ. eigenvalues --   -1.09148  -0.89729  -0.84362  -0.64902  -0.63936
 Alpha  occ. eigenvalues --   -0.57297  -0.48675  -0.47894  -0.35655  -0.33271
 Alpha  occ. eigenvalues --   -0.31122  -0.28387  -0.26353
 Alpha virt. eigenvalues --   -0.08585  -0.05201  -0.02313   0.02376   0.10094
 Alpha virt. eigenvalues --    0.12086   0.15858   0.20678   0.25922   0.31964
 Alpha virt. eigenvalues --    0.32427   0.36278   0.41682   0.45726   0.48914

 Mulliken charges:
               1
     1  C    0.190264
     2  N   -0.297964
     3  N   -0.026172
     4  N   -0.090731
     5  N   -0.223594
     6  H    0.172746
     7  H    0.275452
 Sum of Mulliken charges =   0.00000

 Dipole moment (field-independent basis, Debye):
    X=              2.5063    Y=              4.8066    Z=              0.0000  Tot=              5.4208
 Quadrupole moment (field-independent basis, Debye-Ang):
   XX=            -29.0121   YY=            -26.3731   ZZ=            -28.3664
   XY=              1.7536   XZ=              0.0000   YZ=              0.0000

  Exact polarizability:  39.718   1.125  39.084   0.000   0.000  17.999
 Approx polarizability:  82.837   0.668  87.503   0.000   0.000  31.415

                      1                      2                      3
                     A"                     A"                     A"
 Frequencies --    637.9711               693.6086               739.9041
 Red. masses --      2.0971                 1.6090                 7.6524
 Frc consts  --      0.5029                 0.4561                 2.4683
 IR Inten    --     73.1756                19.5834                 9.5112

                      4                      5                      6
                     A"                     A'                     A'
 Frequencies --    824.1893               961.4170              1001.6399
 Red. masses --      1.4342                 3.1212                 4.6087
 Frc consts  --      0.5740                 1.6998                 2.7243
 IR Inten    --     18.9536                 6.4806                 2.3737

                      7                      8                      9
                     A'                     A'                     A'
 Frequencies --   1052.2681              1078.3489              1127.4218
 Red. masses --      3.1406                 4.9584                 2.2912
 Frc consts  --      2.0489                 3.3971                 1.7158
 IR Inten    --     31.4773                17.1298                 9.4971

                     10                     11                     12
                     A'                     A'                     A'
 Frequencies --   1233.9695              1283.0275              1431.1922
 Red. masses --      2.3998                10.7555                 3.8145
 Frc consts  --      2.1529                10.4317                 4.6034
 IR Inten    --      7.2392                10.6126                 6.7872

                     13                     14                     15
                     A'                     A'                     A'
 Frequencies --   1474.7371              3207.7628              3552.8614
 Red. masses --      4.0423                 1.1018                 1.0837
 Frc consts  --      5.1797                 6.6795                 8.0595
 IR Inten    --     13.4164                 5.2791                95.8959

 - Thermochemistry -
 -------------------
 Temperature   298.150 Kelvin.  Pressure   1.00000 Atm.
 Atom     1 has atomic number  6 and mass  12.00000

 Molecular mass:    70.02795 amu.
 Principal axes and moments of inertia in atomic units:
                           1         2         3
     Eigenvalues --   169.68868 172.27921 341.96788
           X            0.81623   0.57773   0.00000
           Y           -0.57773   0.81623   0.00000
           Z            0.00000   0.00000   1.00000
 This molecule is an asymmetric top.
 Rotational symmetry number  1.
 Rotational temperatures (Kelvin)      0.51043     0.50275     0.25328
 Rotational constants (GHZ):          10.63560    10.47568     5.27752
 Zero-point vibrational energy     121422.9 (Joules/Mol)
                                   29.02076 (Kcal/Mol)
 Vibrational temperatures:    917.90   997.95  1064.56  1185.82  1383.26
          (Kelvin)           1441.13  1513.98  1551.50  1622.11  1775.40
                             1845.99  2059.16  2121.82  4615.25  5111.77

 Zero-point correction=                           0.046248 (Hartree/Particle)
 Thermal correction to Energy=                    0.049702
 Thermal correction to Enthalpy=                  0.050647
 Thermal correction to Gibbs Free Energy=         0.020180
 Sum of electronic and zero-point Energies=           -256.906048
 Sum of electronic and thermal Energies=              -256.902593
 Sum of electronic and thermal Enthalpies=            -256.901649
 Sum of electronic and thermal Free Energies=         -256.932116

                     E (Thermal)             CV                S
                      KCal/Mol        Cal/Mol-Kelvin    Cal/Mol-Kelvin
 Total                   31.189             11.316             64.123
 Electronic               0.000              0.000              0.000
 Translational            0.889              2.981             38.656
 Rotational               0.889              2.981             23.818
 Vibrational             29.411              5.354              1.649

 Optimization completed.
    -- Stationary point found.
 Normal termination of Gaussian 09 at Mon Dec 16 15:11:55 2013.
