 Gaussian 09, Revision D.01,
 Gaussian 09:  EM64L-G09RevD.01 24-Apr-2013

 -------------------
 #LSDA/TZVP opt freq
 -------------------

 -------------------------------------------------------------------
 1H-tetrazole CH2N4 casno=288948 state=1 config=1 method=51 basis=32
 -------------------------------------------------------------------
 Symbolic Z-matrix:
 Charge =  0 Multiplicity = 1

 SCF Done:  E(RS-VWN) =  -256.971048149     A.U. after   16 cycles
 SCF Done:  E(RS-VWN) =  -256.973383947     A.U. after   13 cycles
 SCF Done:  E(RS-VWN) =  -256.973468962     A.U. after   11 cycles
 SCF Done:  E(RS-VWN) =  -256.973491255     A.U. after   10 cycles
 SCF Done:  E(RS-VWN) =  -256.973500187     A.U. after    9 cycles
 SCF Done:  E(RS-VWN) =  -256.973501535     A.U. after    9 cycles
 Optimization completed.
    -- Stationary point found.
 Normal termination of Gaussian 09 at Mon Dec 16 15:12:14 2013.

 ---------------------------------------------------------------
 #N Geom=AllCheck Guess=TCheck SCRF=Check GenChk RSVWN/TZVP Freq
 ---------------------------------------------------------------

 Structure from the checkpoint file:  "/tmp/rdj3/g09-18029/Gau-20731.chk"
 -------------------------------------------------------------------
 1H-tetrazole CH2N4 casno=288948 state=1 config=1 method=51 basis=32
 -------------------------------------------------------------------
 Charge =  0 Multiplicity = 1

                         Standard orientation:
 ---------------------------------------------------------------------
 Center     Atomic      Atomic             Coordinates (Angstroms)
 Number     Number       Type             X           Y           Z
 ---------------------------------------------------------------------
      1          6           0        1.062079    0.233798    0.000000
      2          7           0        0.000000    1.046227    0.000000
      3          7           0       -1.111545    0.301744    0.000000
      4          7           0       -0.716594   -0.920913    0.000000
      5          7           0        0.626989   -1.001376    0.000000
      6          1           0        2.099733    0.555155    0.000000
      7          1           0       -0.064155    2.062286    0.000000
 ---------------------------------------------------------------------

 SCF Done:  E(RS-VWN) =  -256.973501535     A.U. after    1 cycles

 The electronic state is 1-A'.
 Alpha  occ. eigenvalues --  -14.00387 -13.96391 -13.94697 -13.92130  -9.89811
 Alpha  occ. eigenvalues --   -1.09858  -0.90318  -0.84954  -0.65436  -0.64500
 Alpha  occ. eigenvalues --   -0.57805  -0.49204  -0.48356  -0.36253  -0.33816
 Alpha  occ. eigenvalues --   -0.31657  -0.28991  -0.26940
 Alpha virt. eigenvalues --   -0.09154  -0.05798  -0.03079   0.02331   0.06717
 Alpha virt. eigenvalues --    0.07383   0.09719   0.15033   0.16441   0.20799
 Alpha virt. eigenvalues --    0.22839   0.25968   0.27883   0.29108   0.30306

 Mulliken charges:
               1
     1  C   -0.118266
     2  N   -0.128257
     3  N   -0.074056
     4  N   -0.086925
     5  N   -0.062461
     6  H    0.176030
     7  H    0.293936
 Sum of Mulliken charges =   0.00000

 Dipole moment (field-independent basis, Debye):
    X=              2.5927    Y=              4.9135    Z=              0.0000  Tot=              5.5555
 Quadrupole moment (field-independent basis, Debye-Ang):
   XX=            -29.4931   YY=            -26.7944   ZZ=            -28.6512
   XY=              1.8243   XZ=              0.0000   YZ=              0.0000

  Exact polarizability:  42.894   0.829  42.373   0.000   0.000  22.488
 Approx polarizability:  85.067   0.331  89.893   0.000   0.000  37.620

                      1                      2                      3
                     A"                     A"                     A"
 Frequencies --    606.6182               690.1494               732.9957
 Red. masses --      2.2919                 1.6335                 7.3186
 Frc consts  --      0.4969                 0.4584                 2.3168
 IR Inten    --     62.6053                18.9596                 8.8947

                      4                      5                      6
                     A"                     A'                     A'
 Frequencies --    800.5162               961.1784               999.5858
 Red. masses --      1.3494                 3.4554                 4.8628
 Frc consts  --      0.5095                 1.8808                 2.8627
 IR Inten    --     29.5545                 6.3144                 2.4924

                      7                      8                      9
                     A'                     A'                     A'
 Frequencies --   1047.1214              1070.6697              1128.6875
 Red. masses --      3.4443                 4.9673                 2.1228
 Frc consts  --      2.2251                 3.3549                 1.5933
 IR Inten    --     26.9232                22.0342                10.2261

                     10                     11                     12
                     A'                     A'                     A'
 Frequencies --   1232.5232              1278.4519              1427.9800
 Red. masses --      2.2939                10.1708                 3.6745
 Frc consts  --      2.0532                 9.7943                 4.4146
 IR Inten    --      9.2264                 9.4306                 6.9673

                     13                     14                     15
                     A'                     A'                     A'
 Frequencies --   1472.1243              3210.2380              3549.6290
 Red. masses --      4.0110                 1.1021                 1.0838
 Frc consts  --      5.1215                 6.6919                 8.0459
 IR Inten    --     13.9250                 6.4501                99.7882

 - Thermochemistry -
 -------------------
 Temperature   298.150 Kelvin.  Pressure   1.00000 Atm.
 Atom     1 has atomic number  6 and mass  12.00000

 Molecular mass:    70.02795 amu.
 Principal axes and moments of inertia in atomic units:
                           1         2         3
     Eigenvalues --   169.53148 171.85646 341.38794
           X            0.82981   0.55805   0.00000
           Y           -0.55805   0.82981   0.00000
           Z            0.00000   0.00000   1.00000
 This molecule is an asymmetric top.
 Rotational symmetry number  1.
 Rotational temperatures (Kelvin)      0.51090     0.50399     0.25371
 Rotational constants (GHZ):          10.64546    10.50145     5.28648
 Zero-point vibrational energy     120873.5 (Joules/Mol)
                                   28.88946 (Kcal/Mol)
 Warning -- explicit consideration of   1 degrees of freedom as
           vibrations may cause significant error
 Vibrational temperatures:    872.79   992.97  1054.62  1151.76  1382.92
          (Kelvin)           1438.18  1506.57  1540.45  1623.93  1773.32
                             1839.40  2054.54  2118.06  4618.81  5107.12

 Zero-point correction=                           0.046038 (Hartree/Particle)
 Thermal correction to Energy=                    0.049522
 Thermal correction to Enthalpy=                  0.050466
 Thermal correction to Gibbs Free Energy=         0.019961
 Sum of electronic and zero-point Energies=           -256.927463
 Sum of electronic and thermal Energies=              -256.923980
 Sum of electronic and thermal Enthalpies=            -256.923035
 Sum of electronic and thermal Free Energies=         -256.953540

                     E (Thermal)             CV                S
                      KCal/Mol        Cal/Mol-Kelvin    Cal/Mol-Kelvin
 Total                   31.075             11.457             64.203
 Electronic               0.000              0.000              0.000
 Translational            0.889              2.981             38.656
 Rotational               0.889              2.981             23.813
 Vibrational             29.298              5.496              1.734
 Vibration     1          0.965              1.018              0.438

 Optimization completed.
    -- Stationary point found.
 Normal termination of Gaussian 09 at Mon Dec 16 15:12:22 2013.
