 Gaussian 09, Revision D.01,
 Gaussian 09:  EM64L-G09RevD.01 24-Apr-2013

 ---------------------
 #LSDA/6-31G* opt freq
 ---------------------

 ------------------------------------------------------------------
 1H-tetrazole CH2N4 casno=288948 state=1 config=1 method=51 basis=1
 ------------------------------------------------------------------
 Symbolic Z-matrix:
 Charge =  0 Multiplicity = 1

 SCF Done:  E(RS-VWN) =  -256.882757842     A.U. after   15 cycles
 SCF Done:  E(RS-VWN) =  -256.886468311     A.U. after   13 cycles
 SCF Done:  E(RS-VWN) =  -256.886579967     A.U. after   11 cycles
 SCF Done:  E(RS-VWN) =  -256.886605565     A.U. after   10 cycles
 SCF Done:  E(RS-VWN) =  -256.886612543     A.U. after    9 cycles
 SCF Done:  E(RS-VWN) =  -256.886613928     A.U. after    9 cycles
 Optimization completed.
    -- Stationary point found.
 Normal termination of Gaussian 09 at Mon Dec 16 15:11:26 2013.

 -------------------------------------------------------------------
 #N Geom=AllCheck Guess=TCheck SCRF=Check GenChk RSVWN/6-31G(d) Freq
 -------------------------------------------------------------------

 Structure from the checkpoint file:  "/tmp/rdj3/g09-18029/Gau-19408.chk"
 ------------------------------------------------------------------
 1H-tetrazole CH2N4 casno=288948 state=1 config=1 method=51 basis=1
 ------------------------------------------------------------------
 Charge =  0 Multiplicity = 1

                         Standard orientation:
 ---------------------------------------------------------------------
 Center     Atomic      Atomic             Coordinates (Angstroms)
 Number     Number       Type             X           Y           Z
 ---------------------------------------------------------------------
      1          6           0        1.065776    0.234560    0.000000
      2          7           0        0.000000    1.048583    0.000000
      3          7           0       -1.116224    0.305588    0.000000
      4          7           0       -0.717886   -0.924438    0.000000
      5          7           0        0.629075   -1.006268    0.000000
      6          1           0        2.104870    0.561253    0.000000
      7          1           0       -0.064280    2.067128    0.000000
 ---------------------------------------------------------------------

 SCF Done:  E(RS-VWN) =  -256.886613928     A.U. after    1 cycles

 The electronic state is 1-A'.
 Alpha  occ. eigenvalues --  -14.01182 -13.96771 -13.95050 -13.92566  -9.90241
 Alpha  occ. eigenvalues --   -1.08000  -0.88948  -0.83440  -0.64282  -0.63079
 Alpha  occ. eigenvalues --   -0.56543  -0.47706  -0.47279  -0.34909  -0.32423
 Alpha  occ. eigenvalues --   -0.30219  -0.27735  -0.25691
 Alpha virt. eigenvalues --   -0.07782  -0.04373   0.00575   0.05701   0.12099
 Alpha virt. eigenvalues --    0.13823   0.21473   0.26398   0.33530   0.44285
 Alpha virt. eigenvalues --    0.44562   0.51575   0.52834   0.56313   0.58749

 Mulliken charges:
               1
     1  C    0.208045
     2  N   -0.406965
     3  N   -0.041790
     4  N   -0.088911
     5  N   -0.277295
     6  H    0.224201
     7  H    0.382715
 Sum of Mulliken charges =   0.00000

 Dipole moment (field-independent basis, Debye):
    X=              2.4825    Y=              4.7687    Z=              0.0000  Tot=              5.3762
 Quadrupole moment (field-independent basis, Debye-Ang):
   XX=            -28.5864   YY=            -25.8074   ZZ=            -28.1509
   XY=              1.7069   XZ=              0.0000   YZ=              0.0000

  Exact polarizability:  38.187   1.101  37.579   0.000   0.000  15.763
 Approx polarizability:  81.524   0.275  86.010   0.000   0.000  28.215

                      1                      2                      3
                     A"                     A"                     A"
 Frequencies --    601.8744               686.4443               736.5987
 Red. masses --      1.7741                 1.8839                 8.6558
 Frc consts  --      0.3786                 0.5230                 2.7671
 IR Inten    --     85.5414                 9.8435                 6.7474

                      4                      5                      6
                     A"                     A'                     A'
 Frequencies --    801.0337               959.6212               998.3554
 Red. masses --      1.3958                 3.5600                 4.4795
 Frc consts  --      0.5277                 1.9315                 2.6306
 IR Inten    --     21.8476                 4.3881                 2.9631

                      7                      8                      9
                     A'                     A'                     A'
 Frequencies --   1064.1872              1098.9602              1134.3876
 Red. masses --      2.7038                 5.5821                 2.1261
 Frc consts  --      1.8041                 3.9720                 1.6120
 IR Inten    --     36.6722                13.8568                 7.2429

                     10                     11                     12
                     A'                     A'                     A'
 Frequencies --   1243.9476              1288.7464              1446.4696
 Red. masses --      2.5269                10.7127                 3.7597
 Frc consts  --      2.3038                10.4830                 4.6347
 IR Inten    --      7.1630                10.0435                 7.1714

                     13                     14                     15
                     A'                     A'                     A'
 Frequencies --   1482.7306              3234.6028              3558.6725
 Red. masses --      4.2691                 1.1013                 1.0836
 Frc consts  --      5.5298                 6.7891                 8.0849
 IR Inten    --     14.1015                 3.3892                80.2757

 - Thermochemistry -
 -------------------
 Temperature   298.150 Kelvin.  Pressure   1.00000 Atm.
 Atom     1 has atomic number  6 and mass  12.00000

 Molecular mass:    70.02795 amu.
 Principal axes and moments of inertia in atomic units:
                           1         2         3
     Eigenvalues --   170.55594 173.27955 343.83549
           X            0.79819   0.60240   0.00000
           Y           -0.60240   0.79819   0.00000
           Z            0.00000   0.00000   1.00000
 This molecule is an asymmetric top.
 Rotational symmetry number  1.
 Rotational temperatures (Kelvin)      0.50783     0.49985     0.25190
 Rotational constants (GHZ):          10.58152    10.41520     5.24885
 Zero-point vibrational energy     121640.1 (Joules/Mol)
                                   29.07267 (Kcal/Mol)
 Warning -- explicit consideration of   1 degrees of freedom as
           vibrations may cause significant error
 Vibrational temperatures:    865.96   987.64  1059.80  1152.51  1380.68
          (Kelvin)           1436.41  1531.13  1581.16  1632.13  1789.76
                             1854.22  2081.14  2133.32  4653.87  5120.13

 Zero-point correction=                           0.046330 (Hartree/Particle)
 Thermal correction to Energy=                    0.049810
 Thermal correction to Enthalpy=                  0.050754
 Thermal correction to Gibbs Free Energy=         0.020243
 Sum of electronic and zero-point Energies=           -256.840284
 Sum of electronic and thermal Energies=              -256.836804
 Sum of electronic and thermal Enthalpies=            -256.835860
 Sum of electronic and thermal Free Energies=         -256.866371

                     E (Thermal)             CV                S
                      KCal/Mol        Cal/Mol-Kelvin    Cal/Mol-Kelvin
 Total                   31.256             11.403             64.215
 Electronic               0.000              0.000              0.000
 Translational            0.889              2.981             38.656
 Rotational               0.889              2.981             23.834
 Vibrational             29.479              5.442              1.725
 Vibration     1          0.960              1.028              0.446

 Optimization completed.
    -- Stationary point found.
 Normal termination of Gaussian 09 at Mon Dec 16 15:11:31 2013.
