 Gaussian 09, Revision D.01,
 Gaussian 09:  EM64L-G09RevD.01 24-Apr-2013

 --------------------
 #LSDA/6-31G opt freq
 --------------------

 ------------------------------------------------------------------
 1H-tetrazole CH2N4 casno=288948 state=1 config=1 method=51 basis=9
 ------------------------------------------------------------------
 Symbolic Z-matrix:
 Charge =  0 Multiplicity = 1

 SCF Done:  E(RS-VWN) =  -256.749960565     A.U. after   16 cycles
 SCF Done:  E(RS-VWN) =  -256.761631438     A.U. after   15 cycles
 SCF Done:  E(RS-VWN) =  -256.762021031     A.U. after   14 cycles
 SCF Done:  E(RS-VWN) =  -256.762223679     A.U. after   10 cycles
 SCF Done:  E(RS-VWN) =  -256.762242257     A.U. after   10 cycles
 SCF Done:  E(RS-VWN) =  -256.762244717     A.U. after   10 cycles
 Optimization completed.
    -- Stationary point found.
 Normal termination of Gaussian 09 at Mon Dec 16 15:13:19 2013.

 ----------------------------------------------------------------
 #N Geom=AllCheck Guess=TCheck SCRF=Check GenChk RSVWN/6-31G Freq
 ----------------------------------------------------------------

 Structure from the checkpoint file:  "/tmp/rdj3/g09-18029/Gau-22714.chk"
 ------------------------------------------------------------------
 1H-tetrazole CH2N4 casno=288948 state=1 config=1 method=51 basis=9
 ------------------------------------------------------------------
 Charge =  0 Multiplicity = 1

                         Standard orientation:
 ---------------------------------------------------------------------
 Center     Atomic      Atomic             Coordinates (Angstroms)
 Number     Number       Type             X           Y           Z
 ---------------------------------------------------------------------
      1          6           0        1.079636    0.252402    0.000000
      2          7           0        0.000000    1.067044    0.000000
      3          7           0       -1.145549    0.299990    0.000000
      4          7           0       -0.731752   -0.950724    0.000000
      5          7           0        0.659517   -1.012309    0.000000
      6          1           0        2.114101    0.576189    0.000000
      7          1           0       -0.067434    2.081393    0.000000
 ---------------------------------------------------------------------

 SCF Done:  E(RS-VWN) =  -256.762244717     A.U. after    1 cycles

 The electronic state is 1-A'.
 Alpha  occ. eigenvalues --  -14.00953 -13.97913 -13.96101 -13.93586  -9.90709
 Alpha  occ. eigenvalues --   -1.10427  -0.90647  -0.86334  -0.65582  -0.64668
 Alpha  occ. eigenvalues --   -0.57938  -0.48501  -0.48309  -0.34668  -0.33341
 Alpha  occ. eigenvalues --   -0.31656  -0.28048  -0.26419
 Alpha virt. eigenvalues --   -0.09903  -0.06398   0.00035   0.03947   0.09072
 Alpha virt. eigenvalues --    0.11756   0.17000   0.24100   0.29360   0.43943
 Alpha virt. eigenvalues --    0.45635   0.53009   0.56239   0.57692   0.58190

 Mulliken charges:
               1
     1  C    0.246026
     2  N   -0.538432
     3  N    0.016322
     4  N   -0.098283
     5  N   -0.261117
     6  H    0.244812
     7  H    0.390672
 Sum of Mulliken charges =   0.00000

 Dipole moment (field-independent basis, Debye):
    X=              2.7095    Y=              5.1561    Z=              0.0000  Tot=              5.8247
 Quadrupole moment (field-independent basis, Debye-Ang):
   XX=            -29.7470   YY=            -27.0242   ZZ=            -28.6296
   XY=              1.9520   XZ=              0.0000   YZ=              0.0000

  Exact polarizability:  38.493   1.172  38.026   0.000   0.000  14.222
 Approx polarizability:  84.753  -0.398  91.557   0.000   0.000  22.421

                      1                      2                      3
                     A"                     A"                     A"
 Frequencies --    667.0986               712.3279               734.2240
 Red. masses --      3.6143                12.4512                 1.1369
 Frc consts  --      0.9477                 3.7224                 0.3611
 IR Inten    --      6.5856                 0.6244               157.2424

                      4                      5                      6
                     A"                     A'                     A'
 Frequencies --    840.8640               866.4852               931.6809
 Red. masses --      1.4398                 6.9100                 6.1554
 Frc consts  --      0.5998                 3.0567                 3.1480
 IR Inten    --     15.1434                10.0886                12.7393

                      7                      8                      9
                     A'                     A'                     A'
 Frequencies --    994.7324              1012.9473              1128.7405
 Red. masses --      5.7298                 4.5850                 2.2456
 Frc consts  --      3.3404                 2.7718                 1.6856
 IR Inten    --      9.9206                11.7134                10.4039

                     10                     11                     12
                     A'                     A'                     A'
 Frequencies --   1159.5665              1224.3351              1384.8388
 Red. masses --      2.9863                 2.7882                 3.6752
 Frc consts  --      2.3658                 2.4625                 4.1527
 IR Inten    --     13.8293                 1.6710                 3.8810

                     13                     14                     15
                     A'                     A'                     A'
 Frequencies --   1438.2305              3285.8220              3614.2121
 Red. masses --      2.4607                 1.1029                 1.0846
 Frc consts  --      2.9990                 7.0155                 8.3472
 IR Inten    --     32.6470                 8.1694                97.0569

 - Thermochemistry -
 -------------------
 Temperature   298.150 Kelvin.  Pressure   1.00000 Atm.
 Atom     1 has atomic number  6 and mass  12.00000

 Molecular mass:    70.02795 amu.
 Principal axes and moments of inertia in atomic units:
                           1         2         3
     Eigenvalues --   176.95902 180.07141 357.03043
           X            0.98672   0.16245   0.00000
           Y           -0.16245   0.98672   0.00000
           Z            0.00000   0.00000   1.00000
 This molecule is an asymmetric top.
 Rotational symmetry number  1.
 Rotational temperatures (Kelvin)      0.48946     0.48100     0.24260
 Rotational constants (GHZ):          10.19864    10.02236     5.05487
 Zero-point vibrational energy     119603.3 (Joules/Mol)
                                   28.58587 (Kcal/Mol)
 Vibrational temperatures:    959.80  1024.88  1056.38  1209.81  1246.68
          (Kelvin)           1340.48  1431.20  1457.40  1624.00  1668.36
                             1761.54  1992.47  2069.29  4727.56  5200.04

 Zero-point correction=                           0.045554 (Hartree/Particle)
 Thermal correction to Energy=                    0.049042
 Thermal correction to Enthalpy=                  0.049986
 Thermal correction to Gibbs Free Energy=         0.019421
 Sum of electronic and zero-point Energies=           -256.716690
 Sum of electronic and thermal Energies=              -256.713203
 Sum of electronic and thermal Enthalpies=            -256.712259
 Sum of electronic and thermal Free Energies=         -256.742824

                     E (Thermal)             CV                S
                      KCal/Mol        Cal/Mol-Kelvin    Cal/Mol-Kelvin
 Total                   30.774             11.647             64.329
 Electronic               0.000              0.000              0.000
 Translational            0.889              2.981             38.656
 Rotational               0.889              2.981             23.946
 Vibrational             28.997              5.685              1.727

 Optimization completed.
    -- Stationary point found.
 Normal termination of Gaussian 09 at Mon Dec 16 15:13:22 2013.
