 Gaussian 09, Revision D.01,
 Gaussian 09:  EM64L-G09RevD.01 24-Apr-2013

 -----------------------
 #LSDA/6-31+G** opt freq
 -----------------------

 ------------------------------------------------------------------
 1H-tetrazole CH2N4 casno=288948 state=1 config=1 method=51 basis=4
 ------------------------------------------------------------------
 Symbolic Z-matrix:
 Charge =  0 Multiplicity = 1

 SCF Done:  E(RS-VWN) =  -256.899541226     A.U. after   12 cycles
 SCF Done:  E(RS-VWN) =  -256.903186424     A.U. after   11 cycles
 SCF Done:  E(RS-VWN) =  -256.903297338     A.U. after   11 cycles
 SCF Done:  E(RS-VWN) =  -256.903335067     A.U. after   11 cycles
 SCF Done:  E(RS-VWN) =  -256.903344584     A.U. after   10 cycles
 SCF Done:  E(RS-VWN) =  -256.903345826     A.U. after    9 cycles
 Optimization completed.
    -- Stationary point found.
 Normal termination of Gaussian 09 at Mon Dec 16 15:12:39 2013.

 ----------------------------------------------------------------------
 #N Geom=AllCheck Guess=TCheck SCRF=Check GenChk RSVWN/6-31+G(d,p) Freq
 ----------------------------------------------------------------------

 Structure from the checkpoint file:  "/tmp/rdj3/g09-18029/Gau-21391.chk"
 ------------------------------------------------------------------
 1H-tetrazole CH2N4 casno=288948 state=1 config=1 method=51 basis=4
 ------------------------------------------------------------------
 Charge =  0 Multiplicity = 1

                         Standard orientation:
 ---------------------------------------------------------------------
 Center     Atomic      Atomic             Coordinates (Angstroms)
 Number     Number       Type             X           Y           Z
 ---------------------------------------------------------------------
      1          6           0        1.066374    0.235197    0.000000
      2          7           0        0.000000    1.049200    0.000000
      3          7           0       -1.115031    0.304891    0.000000
      4          7           0       -0.718004   -0.924858    0.000000
      5          7           0        0.627057   -1.005904    0.000000
      6          1           0        2.106547    0.557752    0.000000
      7          1           0       -0.062947    2.067770    0.000000
 ---------------------------------------------------------------------

 SCF Done:  E(RS-VWN) =  -256.903345826     A.U. after    1 cycles

 The electronic state is 1-A'.
 Alpha  occ. eigenvalues --  -14.02415 -13.98364 -13.96684 -13.94191  -9.91402
 Alpha  occ. eigenvalues --   -1.09476  -0.90305  -0.84793  -0.65446  -0.64367
 Alpha  occ. eigenvalues --   -0.57631  -0.49014  -0.48344  -0.36344  -0.33816
 Alpha  occ. eigenvalues --   -0.31537  -0.29244  -0.27217
 Alpha virt. eigenvalues --   -0.09339  -0.06050  -0.04592  -0.00459   0.01719
 Alpha virt. eigenvalues --    0.02990   0.03873   0.06066   0.07952   0.10145
 Alpha virt. eigenvalues --    0.10568   0.11501   0.12751   0.14363   0.15176

 Mulliken charges:
               1
     1  C   -0.011887
     2  N   -0.249993
     3  N   -0.045604
     4  N   -0.032685
     5  N   -0.224048
     6  H    0.210331
     7  H    0.353887
 Sum of Mulliken charges =   0.00000

 Dipole moment (field-independent basis, Debye):
    X=              2.6498    Y=              4.9373    Z=              0.0000  Tot=              5.6034
 Quadrupole moment (field-independent basis, Debye-Ang):
   XX=            -29.6099   YY=            -26.8476   ZZ=            -28.9512
   XY=              1.8817   XZ=              0.0000   YZ=              0.0000

  Exact polarizability:  45.339   0.479  44.873   0.000   0.000  24.589
 Approx polarizability:  88.388  -0.074  93.039   0.000   0.000  40.251

                      1                      2                      3
                     A"                     A"                     A"
 Frequencies --    602.2569               681.1890               729.5471
 Red. masses --      1.8803                 1.8002                 8.7361
 Frc consts  --      0.4018                 0.4921                 2.7395
 IR Inten    --     78.2989                12.0149                 7.0631

                      4                      5                      6
                     A"                     A'                     A'
 Frequencies --    803.0399               957.3507               995.3125
 Red. masses --      1.3802                 3.5264                 4.6247
 Frc consts  --      0.5244                 1.9042                 2.6993
 IR Inten    --     26.0004                 4.1565                 3.2064

                      7                      8                      9
                     A'                     A'                     A'
 Frequencies --   1061.0612              1098.8930              1128.4865
 Red. masses --      2.6189                 4.8958                 2.2407
 Frc consts  --      1.7372                 3.4832                 1.6812
 IR Inten    --     34.3607                17.9194                 6.2633

                     10                     11                     12
                     A'                     A'                     A'
 Frequencies --   1240.3781              1288.4439              1438.2284
 Red. masses --      2.5127                11.0167                 3.7897
 Frc consts  --      2.2777                10.7754                 4.6186
 IR Inten    --      6.1718                11.6470                 7.2516

                     13                     14                     15
                     A'                     A'                     A'
 Frequencies --   1476.7753              3228.5313              3565.1164
 Red. masses --      4.3696                 1.1019                 1.0842
 Frc consts  --      5.6147                 6.7669                 8.1192
 IR Inten    --     14.1290                 6.0346                98.6062

 - Thermochemistry -
 -------------------
 Temperature   298.150 Kelvin.  Pressure   1.00000 Atm.
 Atom     1 has atomic number  6 and mass  12.00000

 Molecular mass:    70.02795 amu.
 Principal axes and moments of inertia in atomic units:
                           1         2         3
     Eigenvalues --   170.73111 172.98653 343.71764
           X            0.78435   0.62032   0.00000
           Y           -0.62032   0.78435   0.00000
           Z            0.00000   0.00000   1.00000
 This molecule is an asymmetric top.
 Rotational symmetry number  1.
 Rotational temperatures (Kelvin)      0.50731     0.50070     0.25199
 Rotational constants (GHZ):          10.57066    10.43284     5.25065
 Zero-point vibrational energy     121388.7 (Joules/Mol)
                                   29.01260 (Kcal/Mol)
 Warning -- explicit consideration of   1 degrees of freedom as
           vibrations may cause significant error
 Vibrational temperatures:    866.51   980.08  1049.65  1155.39  1377.41
          (Kelvin)           1432.03  1526.63  1581.06  1623.64  1784.63
                             1853.78  2069.29  2124.75  4645.13  5129.40

 Zero-point correction=                           0.046235 (Hartree/Particle)
 Thermal correction to Energy=                    0.049720
 Thermal correction to Enthalpy=                  0.050664
 Thermal correction to Gibbs Free Energy=         0.020146
 Sum of electronic and zero-point Energies=           -256.857111
 Sum of electronic and thermal Energies=              -256.853626
 Sum of electronic and thermal Enthalpies=            -256.852681
 Sum of electronic and thermal Free Energies=         -256.883200

                     E (Thermal)             CV                S
                      KCal/Mol        Cal/Mol-Kelvin    Cal/Mol-Kelvin
 Total                   31.200             11.443             64.231
 Electronic               0.000              0.000              0.000
 Translational            0.889              2.981             38.656
 Rotational               0.889              2.981             23.833
 Vibrational             29.422              5.481              1.742
 Vibration     1          0.961              1.027              0.446

 Optimization completed.
    -- Stationary point found.
 Normal termination of Gaussian 09 at Mon Dec 16 15:12:46 2013.
