 Gaussian 09, Revision D.01,
 Gaussian 09:  EM64L-G09RevD.01 24-Apr-2013

 -------------------------------
 #SVWN/cc-pVTZ opt=z-matrix freq
 -------------------------------

 ------------------------------------------------------------------
 1H-tetrazole CH2N4 casno=288948 state=1 config=1 method=53 basis=6
 ------------------------------------------------------------------
 Symbolic Z-matrix:
 Charge =  0 Multiplicity = 1

 SCF Done:  E(RS-VWN) =  -256.985301442     A.U. after   14 cycles
 SCF Done:  E(RS-VWN) =  -256.987415736     A.U. after   12 cycles
 SCF Done:  E(RS-VWN) =  -256.987481806     A.U. after   11 cycles
 SCF Done:  E(RS-VWN) =  -256.987520914     A.U. after   11 cycles
 SCF Done:  E(RS-VWN) =  -256.986066340     A.U. after   12 cycles
 SCF Done:  E(RS-VWN) =  -256.987528283     A.U. after    9 cycles
 SCF Done:  E(RS-VWN) =  -256.987536878     A.U. after   10 cycles
 SCF Done:  E(RS-VWN) =  -256.987535356     A.U. after    9 cycles
 SCF Done:  E(RS-VWN) =  -256.987538559     A.U. after    7 cycles
 SCF Done:  E(RS-VWN) =  -256.987534786     A.U. after    9 cycles
 SCF Done:  E(RS-VWN) =  -256.987538765     A.U. after    7 cycles
 SCF Done:  E(RS-VWN) =  -256.987539666     A.U. after    9 cycles
 SCF Done:  E(RS-VWN) =  -256.987539901     A.U. after    7 cycles
 SCF Done:  E(RS-VWN) =  -256.987514787     A.U. after   10 cycles
 SCF Done:  E(RS-VWN) =  -256.981902163     A.U. after   13 cycles
 SCF Done:  E(RS-VWN) =  -256.987539907     A.U. after    8 cycles
 SCF Done:  E(RS-VWN) =  -256.987330007     A.U. after   12 cycles
 SCF Done:  E(RS-VWN) =  -256.987540022     A.U. after    7 cycles
 Optimization completed.
    -- Stationary point found.
 Normal termination of Gaussian 09 at Mon Nov 25 18:25:43 2013.

 ------------------------------------------------------------------
 #N Geom=AllCheck Guess=TCheck SCRF=Check GenChk RSVWN/CC-pVTZ Freq
 ------------------------------------------------------------------

 Structure from the checkpoint file:  "/tmp/rdj3/g09-23219/Gau-30402.chk"
 ------------------------------------------------------------------
 1H-tetrazole CH2N4 casno=288948 state=1 config=1 method=53 basis=6
 ------------------------------------------------------------------
 Charge =  0 Multiplicity = 1

                         Standard orientation:
 ---------------------------------------------------------------------
 Center     Atomic      Atomic             Coordinates (Angstroms)
 Number     Number       Type             X           Y           Z
 ---------------------------------------------------------------------
      1          6           0        1.060818    0.232875    0.000000
      2          7           0        0.000000    1.044971    0.000000
      3          7           0       -1.109019    0.303197    0.000000
      4          7           0       -0.716720   -0.920100    0.000000
      5          7           0        0.625529   -1.001564    0.000000
      6          1           0        2.097123    0.556865    0.000000
      7          1           0       -0.060555    2.060358    0.000000
 ---------------------------------------------------------------------

 SCF Done:  E(RS-VWN) =  -256.987540022     A.U. after    1 cycles

 The electronic state is 1-A'.
 Alpha  occ. eigenvalues --  -13.99991 -13.95934 -13.94310 -13.91751  -9.89423
 Alpha  occ. eigenvalues --   -1.08914  -0.89614  -0.84151  -0.64804  -0.63874
 Alpha  occ. eigenvalues --   -0.57193  -0.48813  -0.47794  -0.35832  -0.33371
 Alpha  occ. eigenvalues --   -0.31138  -0.28556  -0.26605
 Alpha virt. eigenvalues --   -0.08635  -0.05405  -0.02581   0.02234   0.08896
 Alpha virt. eigenvalues --    0.10741   0.11411   0.17969   0.21688   0.22930
 Alpha virt. eigenvalues --    0.29921   0.30145   0.33306   0.35764   0.36116

 Mulliken charges:
               1
     1  C   -0.048758
     2  N    0.002727
     3  N   -0.073545
     4  N   -0.074541
     5  N   -0.132712
     6  H    0.141781
     7  H    0.185049
 Sum of Mulliken charges =   0.00000

 Dipole moment (field-independent basis, Debye):
    X=              2.4587    Y=              4.7273    Z=              0.0000  Tot=              5.3284
 Quadrupole moment (field-independent basis, Debye-Ang):
   XX=            -29.0354   YY=            -26.3134   ZZ=            -28.3744
   XY=              1.7674   XZ=              0.0000   YZ=              0.0000

  Exact polarizability:  42.328   0.965  41.558   0.000   0.000  21.141
 Approx polarizability:  86.680   0.786  90.814   0.000   0.000  37.738

                      1                      2                      3
                     A"                     A"                     A"
 Frequencies --    615.2683               689.4524               744.6938
 Red. masses --      1.6217                 1.9558                 8.7916
 Frc consts  --      0.3617                 0.5477                 2.8726
 IR Inten    --     77.9886                 5.1040                 7.2323

                      4                      5                      6
                     A"                     A'                     A'
 Frequencies --    826.6886               962.2503              1002.3196
 Red. masses --      1.4610                 3.1373                 4.5471
 Frc consts  --      0.5883                 1.7115                 2.6915
 IR Inten    --     18.5630                 5.0350                 2.3963

                      7                      8                      9
                     A'                     A'                     A'
 Frequencies --   1053.6714              1078.7992              1126.2897
 Red. masses --      2.7945                 5.2918                 2.3367
 Frc consts  --      1.8280                 3.6286                 1.7464
 IR Inten    --     33.3324                14.9228                 9.5219

                     10                     11                     12
                     A'                     A'                     A'
 Frequencies --   1232.2841              1284.3212              1428.7254
 Red. masses --      2.4463                10.5539                 3.7256
 Frc consts  --      2.1887                10.2567                 4.4807
 IR Inten    --      6.2971                 8.2920                 6.3538

                     13                     14                     15
                     A'                     A'                     A'
 Frequencies --   1472.8256              3202.5911              3547.4943
 Red. masses --      4.3873                 1.1020                 1.0837
 Frc consts  --      5.6073                 6.6594                 8.0355
 IR Inten    --     12.5508                 4.7403                91.4614

 - Thermochemistry -
 -------------------
 Temperature   298.150 Kelvin.  Pressure   1.00000 Atm.
 Atom     1 has atomic number  6 and mass  12.00000

 Molecular mass:    70.02795 amu.
 Principal axes and moments of inertia in atomic units:
                           1         2         3
     Eigenvalues --   169.21470 171.47087 340.68557
           X            0.78742   0.61641   0.00000
           Y           -0.61641   0.78742   0.00000
           Z            0.00000   0.00000   1.00000
 This molecule is an asymmetric top.
 Rotational symmetry number  1.
 Rotational temperatures (Kelvin)      0.51186     0.50512     0.25423
 Rotational constants (GHZ):          10.66539    10.52506     5.29738
 Zero-point vibrational energy     121227.6 (Joules/Mol)
                                   28.97410 (Kcal/Mol)
 Warning -- explicit consideration of   1 degrees of freedom as
           vibrations may cause significant error
 Vibrational temperatures:    885.23   991.97  1071.45  1189.42  1384.46
          (Kelvin)           1442.11  1516.00  1552.15  1620.48  1772.98
                             1847.85  2055.61  2119.06  4607.81  5104.05

 Zero-point correction=                           0.046173 (Hartree/Particle)
 Thermal correction to Energy=                    0.049639
 Thermal correction to Enthalpy=                  0.050583
 Thermal correction to Gibbs Free Energy=         0.020106
 Sum of electronic and zero-point Energies=           -256.941367
 Sum of electronic and thermal Energies=              -256.937901
 Sum of electronic and thermal Enthalpies=            -256.936957
 Sum of electronic and thermal Free Energies=         -256.967434

                     E (Thermal)             CV                S
                      KCal/Mol        Cal/Mol-Kelvin    Cal/Mol-Kelvin
 Total                   31.149             11.358             64.145
 Electronic               0.000              0.000              0.000
 Translational            0.889              2.981             38.656
 Rotational               0.889              2.981             23.806
 Vibrational             29.371              5.396              1.682
 Vibration     1          0.975              1.000              0.424

 Normal termination of Gaussian 09 at Mon Nov 25 18:26:41 2013.
