 Gaussian 09, Revision D.01,
 Gaussian 09:  EM64L-G09RevD.01 24-Apr-2013

 -----------------------------------
 #SVWN/aug-cc-pVTZ opt=z-matrix freq
 -----------------------------------

 -------------------------------------------------------------------
 1H-tetrazole CH2N4 casno=288948 state=1 config=1 method=53 basis=18
 -------------------------------------------------------------------
 Symbolic Z-matrix:
 Charge =  0 Multiplicity = 1

 SCF Done:  E(RS-VWN) =  -256.990240462     A.U. after   12 cycles
 SCF Done:  E(RS-VWN) =  -256.992364616     A.U. after   10 cycles
 SCF Done:  E(RS-VWN) =  -256.992437682     A.U. after    9 cycles
 SCF Done:  E(RS-VWN) =  -256.992478990     A.U. after    9 cycles
 SCF Done:  E(RS-VWN) =  -256.991246320     A.U. after   11 cycles
 SCF Done:  E(RS-VWN) =  -256.992483880     A.U. after    8 cycles
 SCF Done:  E(RS-VWN) =  -256.992487591     A.U. after    8 cycles
 SCF Done:  E(RS-VWN) =  -256.992495345     A.U. after    9 cycles
 SCF Done:  E(RS-VWN) =  -256.992278042     A.U. after   10 cycles
 SCF Done:  E(RS-VWN) =  -256.992499091     A.U. after    8 cycles
 SCF Done:  E(RS-VWN) =  -256.992500123     A.U. after    7 cycles
 SCF Done:  E(RS-VWN) =  -256.992491359     A.U. after    9 cycles
 SCF Done:  E(RS-VWN) =  -256.987641726     A.U. after   11 cycles
 SCF Done:  E(RS-VWN) =  -256.992500156     A.U. after    4 cycles
 SCF Done:  E(RS-VWN) =  -256.992388570     A.U. after    9 cycles
 SCF Done:  E(RS-VWN) =  -256.992500151     A.U. after    4 cycles
 SCF Done:  E(RS-VWN) =  -256.992500364     A.U. after    7 cycles
 SCF Done:  E(RS-VWN) =  -256.992500452     A.U. after    7 cycles
 SCF Done:  E(RS-VWN) =  -256.992500414     A.U. after    6 cycles
 Optimization completed.
    -- Stationary point found.
 Normal termination of Gaussian 09 at Mon Nov 25 18:08:07 2013.

 ----------------------------------------------------------------------
 #N Geom=AllCheck Guess=TCheck SCRF=Check GenChk RSVWN/Aug-CC-pVTZ Freq
 ----------------------------------------------------------------------

 Structure from the checkpoint file:  "/tmp/rdj3/g09-23219/Gau-16939.chk"
 -------------------------------------------------------------------
 1H-tetrazole CH2N4 casno=288948 state=1 config=1 method=53 basis=18
 -------------------------------------------------------------------
 Charge =  0 Multiplicity = 1

                         Standard orientation:
 ---------------------------------------------------------------------
 Center     Atomic      Atomic             Coordinates (Angstroms)
 Number     Number       Type             X           Y           Z
 ---------------------------------------------------------------------
      1          6           0        1.061046    0.233432    0.000000
      2          7           0        0.000000    1.044513    0.000000
      3          7           0       -1.109056    0.303193    0.000000
      4          7           0       -0.716463   -0.920378    0.000000
      5          7           0        0.625119   -1.001320    0.000000
      6          1           0        2.097497    0.557304    0.000000
      7          1           0       -0.060970    2.060047    0.000000
 ---------------------------------------------------------------------

 SCF Done:  E(RS-VWN) =  -256.992500414     A.U. after    1 cycles

 The electronic state is 1-A'.
 Alpha  occ. eigenvalues --  -14.00465 -13.96599 -13.95016 -13.92376  -9.89853
 Alpha  occ. eigenvalues --   -1.09380  -0.90060  -0.84598  -0.65226  -0.64311
 Alpha  occ. eigenvalues --   -0.57580  -0.49238  -0.48178  -0.36352  -0.33830
 Alpha  occ. eigenvalues --   -0.31565  -0.29119  -0.27163
 Alpha virt. eigenvalues --   -0.09199  -0.06107  -0.05193  -0.01290   0.00939
 Alpha virt. eigenvalues --    0.01574   0.02820   0.04128   0.04914   0.05813
 Alpha virt. eigenvalues --    0.06928   0.07178   0.08364   0.09023   0.10377

 Mulliken charges:
               1
     1  C   -0.079780
     2  N    0.235435
     3  N   -0.290410
     4  N   -0.150827
     5  N   -0.255897
     6  H    0.439274
     7  H    0.102206
 Sum of Mulliken charges =   0.00000

 Dipole moment (field-independent basis, Debye):
    X=              2.5236    Y=              4.7585    Z=              0.0000  Tot=              5.3863
 Quadrupole moment (field-independent basis, Debye-Ang):
   XX=            -29.3869   YY=            -26.7121   ZZ=            -28.7459
   XY=              1.8256   XZ=              0.0000   YZ=              0.0000

  Exact polarizability:  47.072   0.643  46.537  -0.006   0.006  27.009
 Approx polarizability:  91.887   0.581  96.294   0.000   0.000  45.486

                      1                      2                      3
                     A"                     A"                     A"
 Frequencies --    620.1470               688.9429               743.6724
 Red. masses --      1.6406                 1.9259                 8.9305
 Frc consts  --      0.3718                 0.5386                 2.9100
 IR Inten    --     77.3741                 6.0330                 6.6170

                      4                      5                      6
                     A"                     A'                     A'
 Frequencies --    825.8918               961.2277              1002.0196
 Red. masses --      1.4590                 3.1692                 4.7438
 Frc consts  --      0.5863                 1.7252                 2.8063
 IR Inten    --     16.7047                 4.3353                 2.1330

                      7                      8                      9
                     A'                     A'                     A'
 Frequencies --   1054.2799              1078.0198              1124.8993
 Red. masses --      2.7877                 5.2483                 2.3036
 Frc consts  --      1.8256                 3.5935                 1.7175
 IR Inten    --     31.2239                16.0620                 8.4521

                     10                     11                     12
                     A'                     A'                     A'
 Frequencies --   1231.5278              1281.5956              1427.9678
 Red. masses --      2.4474                10.4521                 3.7419
 Frc consts  --      2.1870                10.1147                 4.4955
 IR Inten    --      5.9914                 7.6523                 6.8051

                     13                     14                     15
                     A'                     A'                     A'
 Frequencies --   1469.7132              3202.0322              3543.8341
 Red. masses --      4.3054                 1.1021                 1.0838
 Frc consts  --      5.4793                 6.6580                 8.0196
 IR Inten    --     13.1066                 5.3118                92.5604

 - Thermochemistry -
 -------------------
 Temperature   298.150 Kelvin.  Pressure   1.00000 Atm.
 Atom     1 has atomic number  6 and mass  12.00000

 Molecular mass:    70.02795 amu.
 Principal axes and moments of inertia in atomic units:
                           1         2         3
     Eigenvalues --   169.23850 171.39508 340.63358
           X            0.79461   0.60712   0.00000
           Y           -0.60712   0.79461   0.00000
           Z            0.00000   0.00000   1.00000
 This molecule is an asymmetric top.
 Rotational symmetry number  1.
 Rotational temperatures (Kelvin)      0.51179     0.50535     0.25427
 Rotational constants (GHZ):          10.66389    10.52971     5.29819
 Zero-point vibrational energy     121156.4 (Joules/Mol)
                                   28.95708 (Kcal/Mol)
 Warning -- explicit consideration of   1 degrees of freedom as
           vibrations may cause significant error
 Vibrational temperatures:    892.25   991.23  1069.98  1188.27  1382.99
          (Kelvin)           1441.68  1516.87  1551.03  1618.48  1771.89
                             1843.93  2054.52  2114.59  4607.00  5098.78

 Zero-point correction=                           0.046146 (Hartree/Particle)
 Thermal correction to Energy=                    0.049611
 Thermal correction to Enthalpy=                  0.050555
 Thermal correction to Gibbs Free Energy=         0.020080
 Sum of electronic and zero-point Energies=           -256.946354
 Sum of electronic and thermal Energies=              -256.942890
 Sum of electronic and thermal Enthalpies=            -256.941946
 Sum of electronic and thermal Free Energies=         -256.972421

                     E (Thermal)             CV                S
                      KCal/Mol        Cal/Mol-Kelvin    Cal/Mol-Kelvin
 Total                   31.131             11.357             64.140
 Electronic               0.000              0.000              0.000
 Translational            0.889              2.981             38.656
 Rotational               0.889              2.981             23.806
 Vibrational             29.354              5.396              1.678
 Vibration     1          0.980              0.989              0.416

 Normal termination of Gaussian 09 at Mon Nov 25 18:14:05 2013.
