 Gaussian 09, Revision D.01,
 Gaussian 09:  EM64L-G09RevD.01 24-Apr-2013

 --------------------------
 #SVWN/aug-cc-pVDZ opt freq
 --------------------------

 -------------------------------------------------------------------
 1H-tetrazole CH2N4 casno=288948 state=1 config=1 method=53 basis=17
 -------------------------------------------------------------------
 Symbolic Z-matrix:
 Charge =  0 Multiplicity = 1

 SCF Done:  E(RS-VWN) =  -256.919085353     A.U. after   12 cycles
 SCF Done:  E(RS-VWN) =  -256.923077003     A.U. after   11 cycles
 SCF Done:  E(RS-VWN) =  -256.923199016     A.U. after   11 cycles
 SCF Done:  E(RS-VWN) =  -256.923238966     A.U. after   10 cycles
 SCF Done:  E(RS-VWN) =  -256.923249602     A.U. after    9 cycles
 SCF Done:  E(RS-VWN) =  -256.923251037     A.U. after    9 cycles
 Optimization completed.
    -- Stationary point found.
 Normal termination of Gaussian 09 at Mon Dec 16 15:13:51 2013.

 ----------------------------------------------------------------------
 #N Geom=AllCheck Guess=TCheck SCRF=Check GenChk RSVWN/Aug-CC-pVDZ Freq
 ----------------------------------------------------------------------

 Structure from the checkpoint file:  "/tmp/rdj3/g09-18029/Gau-23374.chk"
 -------------------------------------------------------------------
 1H-tetrazole CH2N4 casno=288948 state=1 config=1 method=53 basis=17
 -------------------------------------------------------------------
 Charge =  0 Multiplicity = 1

                         Standard orientation:
 ---------------------------------------------------------------------
 Center     Atomic      Atomic             Coordinates (Angstroms)
 Number     Number       Type             X           Y           Z
 ---------------------------------------------------------------------
      1          6           0        1.066540    0.234449    0.000000
      2          7           0        0.000000    1.049010    0.000000
      3          7           0       -1.114596    0.307207    0.000000
      4          7           0       -0.719093   -0.924830    0.000000
      5          7           0        0.626725   -1.007919    0.000000
      6          1           0        2.109865    0.560089    0.000000
      7          1           0       -0.060358    2.068945    0.000000
 ---------------------------------------------------------------------

 SCF Done:  E(RS-VWN) =  -256.923251037     A.U. after    1 cycles

 The electronic state is 1-A'.
 Alpha  occ. eigenvalues --  -14.00575 -13.96726 -13.95184 -13.92632  -9.89782
 Alpha  occ. eigenvalues --   -1.09160  -0.90092  -0.84539  -0.65190  -0.64216
 Alpha  occ. eigenvalues --   -0.57376  -0.48865  -0.48070  -0.36264  -0.33681
 Alpha  occ. eigenvalues --   -0.31366  -0.29209  -0.27246
 Alpha virt. eigenvalues --   -0.09325  -0.06245  -0.05252  -0.01354   0.01224
 Alpha virt. eigenvalues --    0.02262   0.03072   0.04860   0.05939   0.06966
 Alpha virt. eigenvalues --    0.08331   0.08794   0.09972   0.09984   0.11479

 Mulliken charges:
               1
     1  C    0.599632
     2  N    0.156141
     3  N   -0.090043
     4  N   -0.278176
     5  N   -0.125278
     6  H   -0.210924
     7  H   -0.051353
 Sum of Mulliken charges =   0.00000

 Dipole moment (field-independent basis, Debye):
    X=              2.5500    Y=              4.7752    Z=              0.0000  Tot=              5.4134
 Quadrupole moment (field-independent basis, Debye-Ang):
   XX=            -29.4211   YY=            -26.7666   ZZ=            -28.9218
   XY=              1.8373   XZ=              0.0000   YZ=              0.0000

  Exact polarizability:  47.411   0.632  46.795   0.000   0.000  26.912
 Approx polarizability:  93.483   0.550  97.633   0.000   0.000  45.413

                      1                      2                      3
                     A"                     A"                     A"
 Frequencies --    621.3823               684.5698               737.6166
 Red. masses --      1.7218                 1.8068                 9.0952
 Frc consts  --      0.3917                 0.4989                 2.9156
 IR Inten    --     76.5309                 7.8832                 6.4981

                      4                      5                      6
                     A"                     A'                     A'
 Frequencies --    811.6866               954.7248               994.9064
 Red. masses --      1.4666                 2.9748                 4.6738
 Frc consts  --      0.5693                 1.5976                 2.7257
 IR Inten    --     18.5852                 3.8046                 2.8567

                      7                      8                      9
                     A'                     A'                     A'
 Frequencies --   1060.4078              1093.7721              1123.5750
 Red. masses --      2.4290                 3.7570                 2.8801
 Frc consts  --      1.6093                 2.6482                 2.1422
 IR Inten    --     35.2695                15.8952                 4.1105

                     10                     11                     12
                     A'                     A'                     A'
 Frequencies --   1233.7597              1283.2797              1434.4187
 Red. masses --      2.7223                10.9869                 3.9271
 Frc consts  --      2.4415                10.6603                 4.7608
 IR Inten    --      4.7950                 8.1534                 6.5590

                     13                     14                     15
                     A'                     A'                     A'
 Frequencies --   1468.6860              3217.9847              3541.8858
 Red. masses --      4.4212                 1.1025                 1.0845
 Frc consts  --      5.6189                 6.7269                 8.0156
 IR Inten    --     12.6376                 5.5177                91.9678

 - Thermochemistry -
 -------------------
 Temperature   298.150 Kelvin.  Pressure   1.00000 Atm.
 Atom     1 has atomic number  6 and mass  12.00000

 Molecular mass:    70.02795 amu.
 Principal axes and moments of inertia in atomic units:
                           1         2         3
     Eigenvalues --   170.80771 173.24435 344.05206
           X            0.75339   0.65757   0.00000
           Y           -0.65757   0.75339   0.00000
           Z            0.00000   0.00000   1.00000
 This molecule is an asymmetric top.
 Rotational symmetry number  1.
 Rotational temperatures (Kelvin)      0.50708     0.49995     0.25175
 Rotational constants (GHZ):          10.56592    10.41732     5.24555
 Zero-point vibrational energy     121197.6 (Joules/Mol)
                                   28.96692 (Kcal/Mol)
 Vibrational temperatures:    894.03   984.94  1061.26  1167.83  1373.63
          (Kelvin)           1431.45  1525.69  1573.69  1616.57  1775.10
                             1846.35  2063.81  2113.11  4629.96  5095.98

 Zero-point correction=                           0.046162 (Hartree/Particle)
 Thermal correction to Energy=                    0.049633
 Thermal correction to Enthalpy=                  0.050577
 Thermal correction to Gibbs Free Energy=         0.020079
 Sum of electronic and zero-point Energies=           -256.877089
 Sum of electronic and thermal Energies=              -256.873618
 Sum of electronic and thermal Enthalpies=            -256.872674
 Sum of electronic and thermal Free Energies=         -256.903172

                     E (Thermal)             CV                S
                      KCal/Mol        Cal/Mol-Kelvin    Cal/Mol-Kelvin
 Total                   31.145             11.390             64.189
 Electronic               0.000              0.000              0.000
 Translational            0.889              2.981             38.656
 Rotational               0.889              2.981             23.836
 Vibrational             29.368              5.428              1.697

 Optimization completed.
    -- Stationary point found.
 Normal termination of Gaussian 09 at Mon Dec 16 15:14:05 2013.
