 Gaussian 09, Revision D.01,
 Gaussian 09:  EM64L-G09RevD.01 24-Apr-2013

 -------------------------------
 #SVWN/cc-pVDZ opt=z-matrix freq
 -------------------------------

 ------------------------------------------------------------------
 1H-tetrazole CH2N4 casno=288948 state=1 config=1 method=53 basis=5
 ------------------------------------------------------------------
 Symbolic Z-matrix:
 Charge =  0 Multiplicity = 1

 SCF Done:  E(RS-VWN) =  -256.895915457     A.U. after   15 cycles
 SCF Done:  E(RS-VWN) =  -256.899936084     A.U. after   14 cycles
 SCF Done:  E(RS-VWN) =  -256.900035110     A.U. after   12 cycles
 SCF Done:  E(RS-VWN) =  -256.899779346     A.U. after   13 cycles
 SCF Done:  E(RS-VWN) =  -256.900060628     A.U. after   10 cycles
 SCF Done:  E(RS-VWN) =  -256.900070698     A.U. after   11 cycles
 SCF Done:  E(RS-VWN) =  -256.900077263     A.U. after    9 cycles
 SCF Done:  E(RS-VWN) =  -256.900078613     A.U. after    8 cycles
 SCF Done:  E(RS-VWN) =  -256.899534407     A.U. after   13 cycles
 SCF Done:  E(RS-VWN) =  -256.900079150     A.U. after    8 cycles
 SCF Done:  E(RS-VWN) =  -256.900079291     A.U. after    8 cycles
 SCF Done:  E(RS-VWN) =  -256.900079407     A.U. after    8 cycles
 SCF Done:  E(RS-VWN) =  -256.900076520     A.U. after   11 cycles
 SCF Done:  E(RS-VWN) =  -256.889004087     A.U. after   15 cycles
 SCF Done:  E(RS-VWN) =  -256.898503066     A.U. after   13 cycles
 SCF Done:  E(RS-VWN) =  -256.896198042     A.U. after   14 cycles
 SCF Done:  E(RS-VWN) =  -256.900079409     A.U. after    8 cycles
 SCF Done:  E(RS-VWN) =  -256.899998009     A.U. after   12 cycles
 SCF Done:  E(RS-VWN) =  -256.900079389     A.U. after    8 cycles
 Optimization completed.
    -- Stationary point found.
 Normal termination of Gaussian 09 at Mon Nov 25 18:21:28 2013.

 ------------------------------------------------------------------
 #N Geom=AllCheck Guess=TCheck SCRF=Check GenChk RSVWN/CC-pVDZ Freq
 ------------------------------------------------------------------

 Structure from the checkpoint file:  "/tmp/rdj3/g09-23219/Gau-28661.chk"
 ------------------------------------------------------------------
 1H-tetrazole CH2N4 casno=288948 state=1 config=1 method=53 basis=5
 ------------------------------------------------------------------
 Charge =  0 Multiplicity = 1

                         Standard orientation:
 ---------------------------------------------------------------------
 Center     Atomic      Atomic             Coordinates (Angstroms)
 Number     Number       Type             X           Y           Z
 ---------------------------------------------------------------------
      1          6           0        1.065630    0.231306    0.000000
      2          7           0        0.000000    1.049883    0.000000
      3          7           0       -1.113741    0.307723    0.000000
      4          7           0       -0.719324   -0.921844    0.000000
      5          7           0        0.626351   -1.009919    0.000000
      6          1           0        2.111187    0.558940    0.000000
      7          1           0       -0.057964    2.072322    0.000000
 ---------------------------------------------------------------------

 SCF Done:  E(RS-VWN) =  -256.900079389     A.U. after    1 cycles

 The electronic state is 1-A'.
 Alpha  occ. eigenvalues --  -13.99443 -13.94974 -13.93260 -13.90968  -9.88863
 Alpha  occ. eigenvalues --   -1.07957  -0.88834  -0.83281  -0.63948  -0.62938
 Alpha  occ. eigenvalues --   -0.56178  -0.47657  -0.46904  -0.34674  -0.32347
 Alpha  occ. eigenvalues --   -0.30118  -0.27500  -0.25463
 Alpha virt. eigenvalues --   -0.07716  -0.04358  -0.01057   0.03652   0.11722
 Alpha virt. eigenvalues --    0.13289   0.20216   0.22915   0.31054   0.36489
 Alpha virt. eigenvalues --    0.38711   0.46354   0.48752   0.50005   0.58019

 Mulliken charges:
               1
     1  C    0.103399
     2  N   -0.037058
     3  N   -0.070653
     4  N   -0.093190
     5  N   -0.145652
     6  H    0.089832
     7  H    0.153321
 Sum of Mulliken charges =   0.00000

 Dipole moment (field-independent basis, Debye):
    X=              2.3698    Y=              4.6535    Z=              0.0000  Tot=              5.2222
 Quadrupole moment (field-independent basis, Debye-Ang):
   XX=            -28.6397   YY=            -25.8222   ZZ=            -27.9390
   XY=              1.6474   XZ=              0.0000   YZ=              0.0000

  Exact polarizability:  38.590   1.244  37.607   0.000   0.000  16.270
 Approx polarizability:  82.480   0.762  86.556   0.000   0.000  29.098

                      1                      2                      3
                     A"                     A"                     A"
 Frequencies --    609.3570               686.0967               740.0152
 Red. masses --      1.7357                 1.8873                 8.1564
 Frc consts  --      0.3797                 0.5234                 2.6317
 IR Inten    --     71.6016                 7.5116                 7.3356

                      4                      5                      6
                     A"                     A'                     A'
 Frequencies --    809.2878               952.4517               993.7339
 Red. masses --      1.4349                 2.7797                 4.2368
 Frc consts  --      0.5537                 1.4857                 2.4651
 IR Inten    --     19.7342                 4.5707                 3.3986

                      7                      8                      9
                     A'                     A'                     A'
 Frequencies --   1054.5267              1093.9062              1124.0740
 Red. masses --      2.3128                 3.7457                 3.1648
 Frc consts  --      1.5153                 2.6408                 2.3561
 IR Inten    --     39.4015                13.7157                 5.3619

                     10                     11                     12
                     A'                     A'                     A'
 Frequencies --   1230.6690              1292.0639              1432.7754
 Red. masses --      2.7580                11.0777                 3.9195
 Frc consts  --      2.4611                10.8960                 4.7407
 IR Inten    --      4.9091                10.6056                 5.3976

                     13                     14                     15
                     A'                     A'                     A'
 Frequencies --   1473.5124              3216.8702              3532.1929
 Red. masses --      5.1293                 1.1022                 1.0847
 Frc consts  --      6.5617                 6.7202                 7.9735
 IR Inten    --     10.8700                 5.0004                90.4387

 - Thermochemistry -
 -------------------
 Temperature   298.150 Kelvin.  Pressure   1.00000 Atm.
 Atom     1 has atomic number  6 and mass  12.00000

 Molecular mass:    70.02795 amu.
 Principal axes and moments of inertia in atomic units:
                           1         2         3
     Eigenvalues --   170.44309 173.45784 343.90093
           X            0.72411   0.68969   0.00000
           Y           -0.68969   0.72411   0.00000
           Z            0.00000   0.00000   1.00000
 This molecule is an asymmetric top.
 Rotational symmetry number  1.
 Rotational temperatures (Kelvin)      0.50817     0.49934     0.25186
 Rotational constants (GHZ):          10.58853    10.40449     5.24785
 Zero-point vibrational energy     121071.3 (Joules/Mol)
                                   28.93672 (Kcal/Mol)
 Warning -- explicit consideration of   1 degrees of freedom as
           vibrations may cause significant error
 Vibrational temperatures:    876.73   987.14  1064.72  1164.38  1370.36
          (Kelvin)           1429.76  1517.23  1573.89  1617.29  1770.66
                             1858.99  2061.44  2120.05  4628.35  5082.03

 Zero-point correction=                           0.046114 (Hartree/Particle)
 Thermal correction to Energy=                    0.049591
 Thermal correction to Enthalpy=                  0.050535
 Thermal correction to Gibbs Free Energy=         0.020028
 Sum of electronic and zero-point Energies=           -256.853966
 Sum of electronic and thermal Energies=              -256.850488
 Sum of electronic and thermal Enthalpies=            -256.849544
 Sum of electronic and thermal Free Energies=         -256.880051

                     E (Thermal)             CV                S
                      KCal/Mol        Cal/Mol-Kelvin    Cal/Mol-Kelvin
 Total                   31.119             11.417             64.207
 Electronic               0.000              0.000              0.000
 Translational            0.889              2.981             38.656
 Rotational               0.889              2.981             23.834
 Vibrational             29.341              5.456              1.717
 Vibration     1          0.968              1.012              0.434

 Normal termination of Gaussian 09 at Mon Nov 25 18:21:34 2013.
