 Gaussian 09, Revision D.01,
 Gaussian 09:  EM64L-G09RevD.01 24-Apr-2013

 ---------------------------
 #SVWN/6-31G(2df,p) opt freq
 ---------------------------

 -------------------------------------------------------------------
 1H-tetrazole CH2N4 casno=288948 state=1 config=1 method=53 basis=19
 -------------------------------------------------------------------
 Symbolic Z-matrix:
 Charge =  0 Multiplicity = 1

 SCF Done:  E(RS-VWN) =  -256.899595289     A.U. after   14 cycles
 SCF Done:  E(RS-VWN) =  -256.902497564     A.U. after   13 cycles
 SCF Done:  E(RS-VWN) =  -256.902612083     A.U. after   10 cycles
 SCF Done:  E(RS-VWN) =  -256.902641711     A.U. after   10 cycles
 SCF Done:  E(RS-VWN) =  -256.902650695     A.U. after    9 cycles
 SCF Done:  E(RS-VWN) =  -256.902652126     A.U. after    8 cycles
 Optimization completed.
    -- Stationary point found.
 Normal termination of Gaussian 09 at Mon Dec 16 15:14:45 2013.

 ----------------------------------------------------------------------
 #N Geom=AllCheck Guess=TCheck SCRF=Check GenChk RSVWN/6-31G(2df,p) Fre
 q
 ----------------------------------------------------------------------

 Structure from the checkpoint file:  "/tmp/rdj3/g09-18029/Gau-24035.chk"
 -------------------------------------------------------------------
 1H-tetrazole CH2N4 casno=288948 state=1 config=1 method=53 basis=19
 -------------------------------------------------------------------
 Charge =  0 Multiplicity = 1

                         Standard orientation:
 ---------------------------------------------------------------------
 Center     Atomic      Atomic             Coordinates (Angstroms)
 Number     Number       Type             X           Y           Z
 ---------------------------------------------------------------------
      1          6           0        1.062768    0.234261    0.000000
      2          7           0        0.000000    1.046635    0.000000
      3          7           0       -1.112384    0.305416    0.000000
      4          7           0       -0.716447   -0.922877    0.000000
      5          7           0        0.627112   -1.004972    0.000000
      6          1           0        2.099039    0.563007    0.000000
      7          1           0       -0.063610    2.062014    0.000000
 ---------------------------------------------------------------------

 SCF Done:  E(RS-VWN) =  -256.902652126     A.U. after    1 cycles

 The electronic state is 1-A'.
 Alpha  occ. eigenvalues --  -14.00819 -13.96588 -13.95000 -13.92497  -9.89467
 Alpha  occ. eigenvalues --   -1.07721  -0.88696  -0.83102  -0.63958  -0.62863
 Alpha  occ. eigenvalues --   -0.56235  -0.47716  -0.46943  -0.34811  -0.32359
 Alpha  occ. eigenvalues --   -0.30056  -0.27628  -0.25634
 Alpha virt. eigenvalues --   -0.07625  -0.04315   0.00905   0.05987   0.12083
 Alpha virt. eigenvalues --    0.13789   0.20445   0.23123   0.31501   0.35701
 Alpha virt. eigenvalues --    0.39596   0.41440   0.43797   0.46827   0.49266

 Mulliken charges:
               1
     1  C   -0.010555
     2  N   -0.174766
     3  N   -0.075115
     4  N   -0.091693
     5  N   -0.167400
     6  H    0.197733
     7  H    0.321796
 Sum of Mulliken charges =   0.00000

 Dipole moment (field-independent basis, Debye):
    X=              2.4232    Y=              4.6426    Z=              0.0000  Tot=              5.2370
 Quadrupole moment (field-independent basis, Debye-Ang):
   XX=            -28.4801   YY=            -25.6602   ZZ=            -27.9429
   XY=              1.6839   XZ=              0.0000   YZ=              0.0000

  Exact polarizability:  39.564   1.069  38.713   0.000   0.000  18.452
 Approx polarizability:  84.263   0.495  88.341   0.000   0.000  34.275

                      1                      2                      3
                     A"                     A"                     A"
 Frequencies --    616.7484               688.6395               741.8811
 Red. masses --      1.6986                 1.9203                 8.7497
 Frc consts  --      0.3807                 0.5366                 2.8373
 IR Inten    --     73.2687                 7.4190                 6.9170

                      4                      5                      6
                     A"                     A'                     A'
 Frequencies --    817.5877               962.9950              1001.5206
 Red. masses --      1.4230                 3.2689                 4.3771
 Frc consts  --      0.5604                 1.7861                 2.5868
 IR Inten    --     15.1058                 4.1825                 3.5151

                      7                      8                      9
                     A'                     A'                     A'
 Frequencies --   1067.7746              1101.8463              1134.6918
 Red. masses --      2.5527                 4.8324                 2.4076
 Frc consts  --      1.7148                 3.4566                 1.8264
 IR Inten    --     37.5714                13.2981                 6.3484

                     10                     11                     12
                     A'                     A'                     A'
 Frequencies --   1238.5032              1290.2343              1435.4468
 Red. masses --      2.6000                10.7671                 3.7452
 Frc consts  --      2.3498                10.5605                 4.5467
 IR Inten    --      5.8062                 8.4873                 6.9932

                     13                     14                     15
                     A'                     A'                     A'
 Frequencies --   1474.6336              3223.6860              3571.3303
 Red. masses --      4.5468                 1.1015                 1.0835
 Frc consts  --      5.8254                 6.7441                 8.1420
 IR Inten    --     12.5228                 4.2134                89.3479

 - Thermochemistry -
 -------------------
 Temperature   298.150 Kelvin.  Pressure   1.00000 Atm.
 Atom     1 has atomic number  6 and mass  12.00000

 Molecular mass:    70.02795 amu.
 Principal axes and moments of inertia in atomic units:
                           1         2         3
     Eigenvalues --   169.86287 172.39855 342.26142
           X            0.74624   0.66567   0.00000
           Y           -0.66567   0.74624   0.00000
           Z            0.00000   0.00000   1.00000
 This molecule is an asymmetric top.
 Rotational symmetry number  1.
 Rotational temperatures (Kelvin)      0.50990     0.50240     0.25306
 Rotational constants (GHZ):          10.62470    10.46842     5.27299
 Zero-point vibrational energy     121824.8 (Joules/Mol)
                                   29.11683 (Kcal/Mol)
 Warning -- explicit consideration of   1 degrees of freedom as
           vibrations may cause significant error
 Vibrational temperatures:    887.36   990.80  1067.40  1176.32  1385.53
          (Kelvin)           1440.96  1536.29  1585.31  1632.57  1781.93
                             1856.36  2065.29  2121.67  4638.16  5138.34

 Zero-point correction=                           0.046401 (Hartree/Particle)
 Thermal correction to Energy=                    0.049864
 Thermal correction to Enthalpy=                  0.050808
 Thermal correction to Gibbs Free Energy=         0.020327
 Sum of electronic and zero-point Energies=           -256.856252
 Sum of electronic and thermal Energies=              -256.852788
 Sum of electronic and thermal Enthalpies=            -256.851844
 Sum of electronic and thermal Free Energies=         -256.882325

                     E (Thermal)             CV                S
                      KCal/Mol        Cal/Mol-Kelvin    Cal/Mol-Kelvin
 Total                   31.290             11.326             64.152
 Electronic               0.000              0.000              0.000
 Translational            0.889              2.981             38.656
 Rotational               0.889              2.981             23.820
 Vibrational             29.512              5.364              1.676
 Vibration     1          0.976              0.996              0.422

 Optimization completed.
    -- Stationary point found.
 Normal termination of Gaussian 09 at Mon Dec 16 15:15:06 2013.
