 Gaussian 09, Revision D.01,
 Gaussian 09:  EM64L-G09RevD.01 24-Apr-2013

 -----------------------------
 #SVWN/3-21G opt=z-matrix freq
 -----------------------------

 ------------------------------------------------------------------
 1H-tetrazole CH2N4 casno=288948 state=1 config=1 method=53 basis=2
 ------------------------------------------------------------------
 Symbolic Z-matrix:
 Charge =  0 Multiplicity = 1

 SCF Done:  E(RS-VWN) =  -255.413804418     A.U. after   15 cycles
 SCF Done:  E(RS-VWN) =  -255.430583305     A.U. after   15 cycles
 SCF Done:  E(RS-VWN) =  -255.431785488     A.U. after   15 cycles
 SCF Done:  E(RS-VWN) =  -255.431071975     A.U. after   14 cycles
 SCF Done:  E(RS-VWN) =  -255.432058437     A.U. after   12 cycles
 SCF Done:  E(RS-VWN) =  -255.432103727     A.U. after   12 cycles
 SCF Done:  E(RS-VWN) =  -255.432114017     A.U. after   12 cycles
 SCF Done:  E(RS-VWN) =  -255.432117827     A.U. after    9 cycles
 SCF Done:  E(RS-VWN) =  -255.432119455     A.U. after    9 cycles
 SCF Done:  E(RS-VWN) =  -255.432120109     A.U. after    8 cycles
 SCF Done:  E(RS-VWN) =  -255.432022990     A.U. after   12 cycles
 SCF Done:  E(RS-VWN) =  -255.432120210     A.U. after    8 cycles
 Optimization completed.
    -- Stationary point found.
 Normal termination of Gaussian 09 at Mon Nov 25 18:18:56 2013.

 ----------------------------------------------------------------
 #N Geom=AllCheck Guess=TCheck SCRF=Check GenChk RSVWN/3-21G Freq
 ----------------------------------------------------------------

 Structure from the checkpoint file:  "/tmp/rdj3/g09-23219/Gau-24123.chk"
 ------------------------------------------------------------------
 1H-tetrazole CH2N4 casno=288948 state=1 config=1 method=53 basis=2
 ------------------------------------------------------------------
 Charge =  0 Multiplicity = 1

                         Standard orientation:
 ---------------------------------------------------------------------
 Center     Atomic      Atomic             Coordinates (Angstroms)
 Number     Number       Type             X           Y           Z
 ---------------------------------------------------------------------
      1          6           0        1.074831    0.259617    0.000000
      2          7           0        0.000000    1.079404    0.000000
      3          7           0       -1.165322    0.291730    0.000000
      4          7           0       -0.735428   -0.966388    0.000000
      5          7           0        0.688906   -1.012527    0.000000
      6          1           0        2.105046    0.597399    0.000000
      7          1           0       -0.071125    2.099358    0.000000
 ---------------------------------------------------------------------

 SCF Done:  E(RS-VWN) =  -255.432120210     A.U. after    1 cycles

 The electronic state is 1-A'.
 Alpha  occ. eigenvalues --  -13.92569 -13.89038 -13.87309 -13.84478  -9.84237
 Alpha  occ. eigenvalues --   -1.07981  -0.88691  -0.85211  -0.63921  -0.63433
 Alpha  occ. eigenvalues --   -0.57057  -0.47131  -0.46521  -0.33454  -0.31648
 Alpha  occ. eigenvalues --   -0.30430  -0.26919  -0.25494
 Alpha virt. eigenvalues --   -0.08661  -0.04977   0.02211   0.04261   0.10711
 Alpha virt. eigenvalues --    0.13433   0.18588   0.28629   0.30880   0.58383
 Alpha virt. eigenvalues --    0.60818   0.72958   0.74498   0.83101   0.91230

 Mulliken charges:
               1
     1  C    0.262908
     2  N   -0.504622
     3  N   -0.035835
     4  N   -0.083676
     5  N   -0.304420
     6  H    0.287432
     7  H    0.378214
 Sum of Mulliken charges =   0.00000

 Dipole moment (field-independent basis, Debye):
    X=              2.4320    Y=              4.9338    Z=              0.0000  Tot=              5.5006
 Quadrupole moment (field-independent basis, Debye-Ang):
   XX=            -29.0460   YY=            -26.0971   ZZ=            -28.5279
   XY=              1.8755   XZ=              0.0000   YZ=              0.0000

  Exact polarizability:  35.431   1.337  34.995   0.000   0.000  11.559
 Approx polarizability:  83.010  -0.998  92.548   0.000   0.000  18.532

                      1                      2                      3
                     A"                     A"                     A"
 Frequencies --    647.7078               678.6917               688.5781
 Red. masses --      3.5922                 1.2631                 6.0006
 Frc consts  --      0.8879                 0.3428                 1.6763
 IR Inten    --     53.1239                80.2678                21.3280

                      4                      5                      6
                     A'                     A'                     A"
 Frequencies --    788.7115               848.0747               877.0734
 Red. masses --      8.6645                 7.1074                 1.4357
 Frc consts  --      3.1756                 3.0118                 0.6507
 IR Inten    --      8.8518                13.6651                18.4021

                      7                      8                      9
                     A'                     A'                     A'
 Frequencies --    966.0490               995.9192              1060.5829
 Red. masses --      3.8049                 6.7526                 7.7379
 Frc consts  --      2.0921                 3.9461                 5.1282
 IR Inten    --     12.2606                 6.6298                 2.1079

                     10                     11                     12
                     A'                     A'                     A'
 Frequencies --   1128.9986              1189.9570              1339.3238
 Red. masses --      1.7268                 2.1758                 3.4866
 Frc consts  --      1.2968                 1.8153                 3.6849
 IR Inten    --     13.4507                 7.8753                 4.4152

                     13                     14                     15
                     A'                     A'                     A'
 Frequencies --   1391.1478              3248.2633              3505.1012
 Red. masses --      2.5338                 1.1005                 1.0847
 Frc consts  --      2.8892                 6.8415                 7.8517
 IR Inten    --     35.4422                 6.0922                96.4768

 - Thermochemistry -
 -------------------
 Temperature   298.150 Kelvin.  Pressure   1.00000 Atm.
 Atom     1 has atomic number  6 and mass  12.00000

 Molecular mass:    70.02795 amu.
 Principal axes and moments of inertia in atomic units:
                           1         2         3
     Eigenvalues --   180.03964 184.06413 364.10376
           X            0.98559   0.16914   0.00000
           Y           -0.16914   0.98559   0.00000
           Z            0.00000   0.00000   1.00000
 This molecule is an asymmetric top.
 Rotational symmetry number  1.
 Rotational temperatures (Kelvin)      0.48108     0.47056     0.23788
 Rotational constants (GHZ):          10.02413     9.80496     4.95667
 Zero-point vibrational energy     115763.7 (Joules/Mol)
                                   27.66819 (Kcal/Mol)
 Vibrational temperatures:    931.91   976.48   990.71  1134.78  1220.19
          (Kelvin)           1261.91  1389.93  1432.90  1525.94  1624.38
                             1712.08  1926.99  2001.55  4673.52  5043.05

 Zero-point correction=                           0.044092 (Hartree/Particle)
 Thermal correction to Energy=                    0.047671
 Thermal correction to Enthalpy=                  0.048615
 Thermal correction to Gibbs Free Energy=         0.017900
 Sum of electronic and zero-point Energies=           -255.388028
 Sum of electronic and thermal Energies=              -255.384450
 Sum of electronic and thermal Enthalpies=            -255.383505
 Sum of electronic and thermal Free Energies=         -255.414220

                     E (Thermal)             CV                S
                      KCal/Mol        Cal/Mol-Kelvin    Cal/Mol-Kelvin
 Total                   29.914             12.212             64.644
 Electronic               0.000              0.000              0.000
 Translational            0.889              2.981             38.656
 Rotational               0.889              2.981             24.005
 Vibrational             28.136              6.250              1.984

 Optimization completed.
    -- Stationary point found.
 Normal termination of Gaussian 09 at Mon Nov 25 18:18:59 2013.
