 Gaussian 09, Revision D.01,
 Gaussian 09:  EM64L-G09RevD.01 24-Apr-2013

 -------------------------------
 #SVWN/6-31G** opt=z-matrix freq
 -------------------------------

 ------------------------------------------------------------------
 1H-tetrazole CH2N4 casno=288948 state=1 config=1 method=53 basis=3
 ------------------------------------------------------------------
 Symbolic Z-matrix:
 Charge =  0 Multiplicity = 1

 SCF Done:  E(RS-VWN) =  -256.887208990     A.U. after   15 cycles
 SCF Done:  E(RS-VWN) =  -256.890847701     A.U. after   13 cycles
 SCF Done:  E(RS-VWN) =  -256.890954178     A.U. after   12 cycles
 SCF Done:  E(RS-VWN) =  -256.890783263     A.U. after   13 cycles
 SCF Done:  E(RS-VWN) =  -256.890981992     A.U. after   10 cycles
 SCF Done:  E(RS-VWN) =  -256.890985696     A.U. after   11 cycles
 SCF Done:  E(RS-VWN) =  -256.890989722     A.U. after    9 cycles
 SCF Done:  E(RS-VWN) =  -256.890461778     A.U. after   12 cycles
 SCF Done:  E(RS-VWN) =  -256.890990431     A.U. after    8 cycles
 SCF Done:  E(RS-VWN) =  -256.890990739     A.U. after    8 cycles
 SCF Done:  E(RS-VWN) =  -256.890860242     A.U. after   12 cycles
 SCF Done:  E(RS-VWN) =  -256.890990541     A.U. after    9 cycles
 SCF Done:  E(RS-VWN) =  -256.890990861     A.U. after    7 cycles
 SCF Done:  E(RS-VWN) =  -256.890958558     A.U. after   12 cycles
 SCF Done:  E(RS-VWN) =  -256.890990597     A.U. after    9 cycles
 SCF Done:  E(RS-VWN) =  -256.890990856     A.U. after    5 cycles
 SCF Done:  E(RS-VWN) =  -256.890990876     A.U. after    6 cycles
 SCF Done:  E(RS-VWN) =  -256.890990853     A.U. after    7 cycles
 SCF Done:  E(RS-VWN) =  -256.890990878     A.U. after    7 cycles
 Optimization completed.
    -- Stationary point found.
 Normal termination of Gaussian 09 at Mon Nov 25 18:19:39 2013.

 ---------------------------------------------------------------------
 #N Geom=AllCheck Guess=TCheck SCRF=Check GenChk RSVWN/6-31G(d,p) Freq
 ---------------------------------------------------------------------

 Structure from the checkpoint file:  "/tmp/rdj3/g09-23219/Gau-25253.chk"
 ------------------------------------------------------------------
 1H-tetrazole CH2N4 casno=288948 state=1 config=1 method=53 basis=3
 ------------------------------------------------------------------
 Charge =  0 Multiplicity = 1

                         Standard orientation:
 ---------------------------------------------------------------------
 Center     Atomic      Atomic             Coordinates (Angstroms)
 Number     Number       Type             X           Y           Z
 ---------------------------------------------------------------------
      1          6           0        1.065666    0.234321    0.000000
      2          7           0        0.000000    1.048825    0.000000
      3          7           0       -1.116063    0.305608    0.000000
      4          7           0       -0.717930   -0.924099    0.000000
      5          7           0        0.628638   -1.006540    0.000000
      6          1           0        2.104483    0.560748    0.000000
      7          1           0       -0.060996    2.066763    0.000000
 ---------------------------------------------------------------------

 SCF Done:  E(RS-VWN) =  -256.890990878     A.U. after    1 cycles

 The electronic state is 1-A'.
 Alpha  occ. eigenvalues --  -14.01167 -13.96789 -13.95069 -13.92591  -9.90243
 Alpha  occ. eigenvalues --   -1.08004  -0.88939  -0.83445  -0.64207  -0.63078
 Alpha  occ. eigenvalues --   -0.56457  -0.47730  -0.47198  -0.34903  -0.32462
 Alpha  occ. eigenvalues --   -0.30242  -0.27743  -0.25701
 Alpha virt. eigenvalues --   -0.07856  -0.04426   0.00584   0.05678   0.12020
 Alpha virt. eigenvalues --    0.13698   0.21390   0.26393   0.33455   0.43877
 Alpha virt. eigenvalues --    0.44567   0.51494   0.52832   0.55840   0.58664

 Mulliken charges:
               1
     1  C    0.256608
     2  N   -0.342739
     3  N   -0.051185
     4  N   -0.089125
     5  N   -0.284904
     6  H    0.187927
     7  H    0.323419
 Sum of Mulliken charges =   0.00000

 Dipole moment (field-independent basis, Debye):
    X=              2.4792    Y=              4.7557    Z=              0.0000  Tot=              5.3631
 Quadrupole moment (field-independent basis, Debye-Ang):
   XX=            -28.6010   YY=            -25.8296   ZZ=            -28.1198
   XY=              1.7101   XZ=              0.0000   YZ=              0.0000

  Exact polarizability:  38.344   1.131  37.761   0.000   0.000  15.878
 Approx polarizability:  81.928   0.369  86.535   0.000   0.000  28.474

                      1                      2                      3
                     A"                     A"                     A"
 Frequencies --    610.2695               686.0626               736.2538
 Red. masses --      1.8103                 1.8454                 8.4140
 Frc consts  --      0.3972                 0.5118                 2.6873
 IR Inten    --     81.3170                11.0047                 7.3783

                      4                      5                      6
                     A"                     A'                     A'
 Frequencies --    806.3026               957.8717               996.0655
 Red. masses --      1.4018                 3.4733                 4.3755
 Frc consts  --      0.5370                 1.8776                 2.5577
 IR Inten    --     20.3635                 4.0622                 3.0250

                      7                      8                      9
                     A'                     A'                     A'
 Frequencies --   1060.8014              1098.2279              1131.6663
 Red. masses --      2.6318                 5.2364                 2.2218
 Frc consts  --      1.7449                 3.7210                 1.6764
 IR Inten    --     37.1819                13.6854                 7.2261

                     10                     11                     12
                     A'                     A'                     A'
 Frequencies --   1241.1120              1289.2191              1442.2479
 Red. masses --      2.5269                10.9797                 3.7716
 Frc consts  --      2.2933                10.7521                 4.6223
 IR Inten    --      6.5048                10.7415                 7.0719

                     13                     14                     15
                     A'                     A'                     A'
 Frequencies --   1479.7756              3228.1358              3568.5605
 Red. masses --      4.4703                 1.1015                 1.0838
 Frc consts  --      5.7673                 6.7628                 8.1321
 IR Inten    --     13.3498                 4.1448                87.1517

 - Thermochemistry -
 -------------------
 Temperature   298.150 Kelvin.  Pressure   1.00000 Atm.
 Atom     1 has atomic number  6 and mass  12.00000

 Molecular mass:    70.02795 amu.
 Principal axes and moments of inertia in atomic units:
                           1         2         3
     Eigenvalues --   170.55182 173.23342 343.78523
           X            0.79129   0.61144   0.00000
           Y           -0.61144   0.79129   0.00000
           Z            0.00000   0.00000   1.00000
 This molecule is an asymmetric top.
 Rotational symmetry number  1.
 Rotational temperatures (Kelvin)      0.50784     0.49998     0.25194
 Rotational constants (GHZ):          10.58178    10.41797     5.24962
 Zero-point vibrational energy     121615.8 (Joules/Mol)
                                   29.06687 (Kcal/Mol)
 Warning -- explicit consideration of   1 degrees of freedom as
           vibrations may cause significant error
 Vibrational temperatures:    878.04   987.09  1059.30  1160.09  1378.16
          (Kelvin)           1433.11  1526.25  1580.10  1628.21  1785.68
                             1854.90  2075.07  2129.06  4644.56  5134.36

 Zero-point correction=                           0.046321 (Hartree/Particle)
 Thermal correction to Energy=                    0.049796
 Thermal correction to Enthalpy=                  0.050740
 Thermal correction to Gibbs Free Energy=         0.020237
 Sum of electronic and zero-point Energies=           -256.844670
 Sum of electronic and thermal Energies=              -256.841195
 Sum of electronic and thermal Enthalpies=            -256.840250
 Sum of electronic and thermal Free Energies=         -256.870754

                     E (Thermal)             CV                S
                      KCal/Mol        Cal/Mol-Kelvin    Cal/Mol-Kelvin
 Total                   31.248             11.393             64.201
 Electronic               0.000              0.000              0.000
 Translational            0.889              2.981             38.656
 Rotational               0.889              2.981             23.833
 Vibrational             29.470              5.431              1.711
 Vibration     1          0.969              1.010              0.432

 Normal termination of Gaussian 09 at Mon Nov 25 18:19:45 2013.
