 Gaussian 09, Revision D.01,
 Gaussian 09:  EM64L-G09RevD.01 24-Apr-2013

 ----------------------
 #SVWN/6-311G* opt freq
 ----------------------

 ------------------------------------------------------------------
 1H-tetrazole CH2N4 casno=288948 state=1 config=1 method=53 basis=7
 ------------------------------------------------------------------
 Symbolic Z-matrix:
 Charge =  0 Multiplicity = 1

 SCF Done:  E(RS-VWN) =  -256.944667052     A.U. after   15 cycles
 SCF Done:  E(RS-VWN) =  -256.947264911     A.U. after   13 cycles
 SCF Done:  E(RS-VWN) =  -256.947352105     A.U. after   10 cycles
 SCF Done:  E(RS-VWN) =  -256.947372001     A.U. after   10 cycles
 SCF Done:  E(RS-VWN) =  -256.947377460     A.U. after    9 cycles
 SCF Done:  E(RS-VWN) =  -256.947378659     A.U. after    9 cycles
 Optimization completed.
    -- Stationary point found.
 Normal termination of Gaussian 09 at Mon Dec 16 15:16:28 2013.

 --------------------------------------------------------------------
 #N Geom=AllCheck Guess=TCheck SCRF=Check GenChk RSVWN/6-311G(d) Freq
 --------------------------------------------------------------------

 Structure from the checkpoint file:  "/tmp/rdj3/g09-18029/Gau-26679.chk"
 ------------------------------------------------------------------
 1H-tetrazole CH2N4 casno=288948 state=1 config=1 method=53 basis=7
 ------------------------------------------------------------------
 Charge =  0 Multiplicity = 1

                         Standard orientation:
 ---------------------------------------------------------------------
 Center     Atomic      Atomic             Coordinates (Angstroms)
 Number     Number       Type             X           Y           Z
 ---------------------------------------------------------------------
      1          6           0        1.062443    0.232779    0.000000
      2          7           0        0.000000    1.046903    0.000000
      3          7           0       -1.112437    0.303334    0.000000
      4          7           0       -0.717142   -0.921104    0.000000
      5          7           0        0.627941   -1.002917    0.000000
      6          1           0        2.100845    0.556742    0.000000
      7          1           0       -0.064031    2.063080    0.000000
 ---------------------------------------------------------------------

 SCF Done:  E(RS-VWN) =  -256.947378659     A.U. after    1 cycles

 The electronic state is 1-A'.
 Alpha  occ. eigenvalues --  -13.99105 -13.94902 -13.93170 -13.90665  -9.88887
 Alpha  occ. eigenvalues --   -1.09152  -0.89769  -0.84361  -0.65015  -0.63949
 Alpha  occ. eigenvalues --   -0.57395  -0.48639  -0.47968  -0.35648  -0.33214
 Alpha  occ. eigenvalues --   -0.31071  -0.28368  -0.26327
 Alpha virt. eigenvalues --   -0.08460  -0.05109  -0.02345   0.02406   0.10232
 Alpha virt. eigenvalues --    0.12222   0.15878   0.20807   0.25919   0.31989
 Alpha virt. eigenvalues --    0.32513   0.36227   0.42085   0.46143   0.49022

 Mulliken charges:
               1
     1  C    0.094151
     2  N   -0.439177
     3  N   -0.009211
     4  N   -0.092411
     5  N   -0.216907
     6  H    0.273710
     7  H    0.389845
 Sum of Mulliken charges =   0.00000

 Dipole moment (field-independent basis, Debye):
    X=              2.5158    Y=              4.8404    Z=              0.0000  Tot=              5.4552
 Quadrupole moment (field-independent basis, Debye-Ang):
   XX=            -28.9873   YY=            -26.2895   ZZ=            -28.4529
   XY=              1.7591   XZ=              0.0000   YZ=              0.0000

  Exact polarizability:  39.508   1.097  38.866   0.000   0.000  17.764
 Approx polarizability:  82.243   0.553  86.779   0.000   0.000  30.949

                      1                      2                      3
                     A"                     A"                     A"
 Frequencies --    631.6795               694.4301               740.2405
 Red. masses --      2.0461                 1.6253                 7.9924
 Frc consts  --      0.4810                 0.4618                 2.5803
 IR Inten    --     81.3573                18.1689                 8.5375

                      4                      5                      6
                     A"                     A'                     A'
 Frequencies --    807.2204               962.5937              1004.3171
 Red. masses --      1.4345                 3.2172                 4.7985
 Frc consts  --      0.5507                 1.7563                 2.8517
 IR Inten    --     22.4491                 6.8487                 2.3598

                      7                      8                      9
                     A'                     A'                     A'
 Frequencies --   1056.8812              1079.3054              1129.5657
 Red. masses --      3.3266                 5.0020                 2.2350
 Frc consts  --      2.1893                 3.4330                 1.6801
 IR Inten    --     30.1228                18.3525                 9.0287

                     10                     11                     12
                     A'                     A'                     A'
 Frequencies --   1239.6301              1283.2648              1440.0730
 Red. masses --      2.4097                10.5870                 3.8103
 Frc consts  --      2.1817                10.2720                 4.6556
 IR Inten    --      7.8418                10.2894                 7.0873

                     13                     14                     15
                     A'                     A'                     A'
 Frequencies --   1482.6180              3205.3126              3559.4804
 Red. masses --      3.6483                 1.1020                 1.0836
 Frc consts  --      4.7250                 6.6706                 8.0886
 IR Inten    --     14.7423                 2.9088                77.0809

 - Thermochemistry -
 -------------------
 Temperature   298.150 Kelvin.  Pressure   1.00000 Atm.
 Atom     1 has atomic number  6 and mass  12.00000

 Molecular mass:    70.02795 amu.
 Principal axes and moments of inertia in atomic units:
                           1         2         3
     Eigenvalues --   169.62420 172.29971 341.92391
           X            0.81017   0.58619   0.00000
           Y           -0.58619   0.81017   0.00000
           Z            0.00000   0.00000   1.00000
 This molecule is an asymmetric top.
 Rotational symmetry number  1.
 Rotational temperatures (Kelvin)      0.51062     0.50269     0.25331
 Rotational constants (GHZ):          10.63964    10.47443     5.27820
 Zero-point vibrational energy     121520.3 (Joules/Mol)
                                   29.04406 (Kcal/Mol)
 Vibrational temperatures:    908.84   999.13  1065.04  1161.41  1384.96
          (Kelvin)           1444.99  1520.61  1552.88  1625.19  1783.55
                             1846.33  2071.94  2133.15  4611.72  5121.29

 Zero-point correction=                           0.046285 (Hartree/Particle)
 Thermal correction to Energy=                    0.049745
 Thermal correction to Enthalpy=                  0.050689
 Thermal correction to Gibbs Free Energy=         0.020215
 Sum of electronic and zero-point Energies=           -256.901094
 Sum of electronic and thermal Energies=              -256.897634
 Sum of electronic and thermal Enthalpies=            -256.896690
 Sum of electronic and thermal Free Energies=         -256.927164

                     E (Thermal)             CV                S
                      KCal/Mol        Cal/Mol-Kelvin    Cal/Mol-Kelvin
 Total                   31.215             11.334             64.138
 Electronic               0.000              0.000              0.000
 Translational            0.889              2.981             38.656
 Rotational               0.889              2.981             23.817
 Vibrational             29.438              5.373              1.665

 Optimization completed.
    -- Stationary point found.
 Normal termination of Gaussian 09 at Mon Dec 16 15:16:35 2013.
