 Gaussian 09, Revision D.01,
 Gaussian 09:  EM64L-G09RevD.01 24-Apr-2013

 ------------------------
 #PBE1PBE/6-31G* opt freq
 ------------------------

 ------------------------------------------------------------------
 1H-tetrazole CH2N4 casno=288948 state=1 config=1 method=54 basis=3
 ------------------------------------------------------------------
 Symbolic Z-matrix:
 Charge =  0 Multiplicity = 1

 SCF Done:  E(RPBE1PBE) =  -257.968236669     A.U. after   14 cycles
 SCF Done:  E(RPBE1PBE) =  -257.970835047     A.U. after   12 cycles
 SCF Done:  E(RPBE1PBE) =  -257.970891264     A.U. after   10 cycles
 SCF Done:  E(RPBE1PBE) =  -257.970904040     A.U. after    9 cycles
 SCF Done:  E(RPBE1PBE) =  -257.970906512     A.U. after    9 cycles
 Optimization completed.
    -- Stationary point found.
 Normal termination of Gaussian 09 at Mon Dec 16 15:19:19 2013.

 ----------------------------------------------------------------------
 #P Geom=AllCheck Guess=TCheck SCRF=Check GenChk RPBE1PBE/6-31G(d) Freq
 ----------------------------------------------------------------------

 Structure from the checkpoint file:  "/tmp/rdj3/g09-18029/Gau-31073.chk"
 ------------------------------------------------------------------
 1H-tetrazole CH2N4 casno=288948 state=1 config=1 method=54 basis=3
 ------------------------------------------------------------------
 Charge =  0 Multiplicity = 1

                         Standard orientation:
 ---------------------------------------------------------------------
 Center     Atomic      Atomic             Coordinates (Angstroms)
 Number     Number       Type             X           Y           Z
 ---------------------------------------------------------------------
      1          6           0        1.064307    0.233213    0.000000
      2          7           0        0.000000    1.048489    0.000000
      3          7           0       -1.113826    0.303418    0.000000
      4          7           0       -0.719272   -0.920530    0.000000
      5          7           0        0.630581   -1.004760    0.000000
      6          1           0        2.093730    0.558598    0.000000
      7          1           0       -0.061952    2.055807    0.000000
 ---------------------------------------------------------------------

 SCF Done:  E(RPBE1PBE) =  -257.970906512     A.U. after    1 cycles

 The electronic state is 1-A'.
 Alpha  occ. eigenvalues --  -14.51748 -14.47788 -14.45973 -14.43121 -10.32838
 Alpha  occ. eigenvalues --   -1.18482  -0.98103  -0.92477  -0.70547  -0.69012
 Alpha  occ. eigenvalues --   -0.61890  -0.51961  -0.51775  -0.39705  -0.34779
 Alpha  occ. eigenvalues --   -0.32365  -0.31913  -0.30347
 Alpha virt. eigenvalues --   -0.01231   0.02603   0.06793   0.11986   0.19846
 Alpha virt. eigenvalues --    0.21157   0.29673   0.33580   0.43282   0.53180
 Alpha virt. eigenvalues --    0.53751   0.61049   0.61850   0.66544   0.68485

 Mulliken charges:
               1
     1  C    0.251257
     2  N   -0.446376
     3  N   -0.036488
     4  N   -0.081367
     5  N   -0.310617
     6  H    0.232292
     7  H    0.391298
 Sum of Mulliken charges =   0.00000

 Dipole moment (field-independent basis, Debye):
    X=              2.5127    Y=              4.7905    Z=              0.0000  Tot=              5.4095
 Quadrupole moment (field-independent basis, Debye-Ang):
   XX=            -28.4802   YY=            -25.9167   ZZ=            -28.1920
   XY=              1.7881   XZ=              0.0000   YZ=              0.0000

  Exact polarizability:  37.201   0.944  36.612   0.000   0.000  15.622
 Approx polarizability:  62.188   0.269  65.584   0.000   0.000  23.258

                      1                      2                      3
                     A"                     A"                     A"
 Frequencies --    599.9374               703.3917               753.1476
 Red. masses --      1.7952                 1.9586                 8.0358
 Frc consts  --      0.3807                 0.5710                 2.6856
 IR Inten    --     93.2756                10.3703                 8.8587

                      4                      5                      6
                     A"                     A'                     A'
 Frequencies --    858.6690               995.2642              1029.6000
 Red. masses --      1.3592                 4.3209                 5.3995
 Frc consts  --      0.5905                 2.5218                 3.3724
 IR Inten    --     18.5894                 3.3259                 1.7769

                      7                      8                      9
                     A'                     A'                     A'
 Frequencies --   1100.2927              1115.3492              1170.4238
 Red. masses --      3.0148                 5.0960                 1.9357
 Frc consts  --      2.1504                 3.7351                 1.5623
 IR Inten    --     28.8690                21.5929                10.6581

                     10                     11                     12
                     A'                     A'                     A'
 Frequencies --   1298.7466              1343.1076              1499.3108
 Red. masses --      2.5858                10.4704                 3.4880
 Frc consts  --      2.5698                11.1285                 4.6197
 IR Inten    --      1.5926                17.3607                 8.9100

                     13                     14                     15
                     A'                     A'                     A'
 Frequencies --   1544.4871              3335.1089              3696.7795
 Red. masses --      3.5252                 1.1014                 1.0839
 Frc consts  --      4.9545                 7.2177                 8.7277
 IR Inten    --     17.8953                 1.3309                92.5568

 - Thermochemistry -
 -------------------
 Temperature   298.150 Kelvin.  Pressure   1.00000 Atm.
 Atom     1 has atomic number  6 and mass  12.00000

 Molecular mass:    70.02795 amu.
 Principal axes and moments of inertia in atomic units:
                           1         2         3
     Eigenvalues --   169.86277 172.80810 342.67087
           X            0.83507   0.55014   0.00000
           Y           -0.55014   0.83507   0.00000
           Z            0.00000   0.00000   1.00000
 This molecule is an asymmetric top.
 Rotational symmetry number  1.
 Rotational temperatures (Kelvin)      0.50990     0.50121     0.25276
 Rotational constants (GHZ):          10.62470    10.44361     5.26669
 Zero-point vibrational energy     125868.8 (Joules/Mol)
                                   30.08336 (Kcal/Mol)
 Warning -- explicit consideration of   1 degrees of freedom as
           vibrations may cause significant error
 Vibrational temperatures:    863.17  1012.02  1083.61  1235.43  1431.96
          (Kelvin)           1481.36  1583.07  1604.74  1683.98  1868.60
                             1932.43  2157.17  2222.17  4798.47  5318.83

 Zero-point correction=                           0.047941 (Hartree/Particle)
 Thermal correction to Energy=                    0.051368
 Thermal correction to Enthalpy=                  0.052312
 Thermal correction to Gibbs Free Energy=         0.021874
 Sum of electronic and zero-point Energies=           -257.922966
 Sum of electronic and thermal Energies=              -257.919538
 Sum of electronic and thermal Enthalpies=            -257.918594
 Sum of electronic and thermal Free Energies=         -257.949033

                     E (Thermal)             CV                S
                      KCal/Mol        Cal/Mol-Kelvin    Cal/Mol-Kelvin
 Total                   32.234             11.023             64.063
 Electronic               0.000              0.000              0.000
 Translational            0.889              2.981             38.656
 Rotational               0.889              2.981             23.824
 Vibrational             30.457              5.061              1.583
 Vibration     1          0.958              1.032              0.450

 Optimization completed.
    -- Stationary point found.
 Normal termination of Gaussian 09 at Mon Dec 16 15:19:26 2013.
