 Gaussian 09, Revision D.01,
 Gaussian 09:  EM64L-G09RevD.01 24-Apr-2013

 ----------------------------------
 #PBE1PBE/cc-pVTZ opt=z-matrix freq
 ----------------------------------

 ------------------------------------------------------------------
 1H-tetrazole CH2N4 casno=288948 state=1 config=1 method=54 basis=6
 ------------------------------------------------------------------
 Symbolic Z-matrix:
 Charge =  0 Multiplicity = 1

 SCF Done:  E(RPBE1PBE) =  -258.059831279     A.U. after   14 cycles
 SCF Done:  E(RPBE1PBE) =  -258.061334417     A.U. after   10 cycles
 SCF Done:  E(RPBE1PBE) =  -258.061359576     A.U. after    9 cycles
 SCF Done:  E(RPBE1PBE) =  -258.061377324     A.U. after    9 cycles
 SCF Done:  E(RPBE1PBE) =  -258.061336299     A.U. after    9 cycles
 SCF Done:  E(RPBE1PBE) =  -258.061387614     A.U. after    7 cycles
 SCF Done:  E(RPBE1PBE) =  -258.061389587     A.U. after    8 cycles
 SCF Done:  E(RPBE1PBE) =  -258.061389392     A.U. after    8 cycles
 SCF Done:  E(RPBE1PBE) =  -258.061390988     A.U. after    8 cycles
 SCF Done:  E(RPBE1PBE) =  -258.061389049     A.U. after    8 cycles
 SCF Done:  E(RPBE1PBE) =  -258.061392390     A.U. after    6 cycles
 SCF Done:  E(RPBE1PBE) =  -258.061392301     A.U. after    7 cycles
 SCF Done:  E(RPBE1PBE) =  -258.061392534     A.U. after    6 cycles
 SCF Done:  E(RPBE1PBE) =  -258.061392355     A.U. after    6 cycles
 SCF Done:  E(RPBE1PBE) =  -258.061392569     A.U. after    6 cycles
 SCF Done:  E(RPBE1PBE) =  -258.061391734     A.U. after    7 cycles
 SCF Done:  E(RPBE1PBE) =  -258.061392566     A.U. after    7 cycles
 SCF Done:  E(RPBE1PBE) =  -258.061392583     A.U. after    6 cycles
 SCF Done:  E(RPBE1PBE) =  -258.061392572     A.U. after    6 cycles
 Optimization completed.
    -- Stationary point found.
 Normal termination of Gaussian 09 at Mon Nov 25 19:24:49 2013.

 ---------------------------------------------------------------------
 #P Geom=AllCheck Guess=TCheck SCRF=Check GenChk RPBE1PBE/CC-pVTZ Freq
 ---------------------------------------------------------------------

 Structure from the checkpoint file:  "/tmp/rdj3/g09-23219/Gau-20247.chk"
 ------------------------------------------------------------------
 1H-tetrazole CH2N4 casno=288948 state=1 config=1 method=54 basis=6
 ------------------------------------------------------------------
 Charge =  0 Multiplicity = 1

                         Standard orientation:
 ---------------------------------------------------------------------
 Center     Atomic      Atomic             Coordinates (Angstroms)
 Number     Number       Type             X           Y           Z
 ---------------------------------------------------------------------
      1          6           0        1.060514    0.231660    0.000000
      2          7           0        0.000000    1.045826    0.000000
      3          7           0       -1.108451    0.301921    0.000000
      4          7           0       -0.718563   -0.916659    0.000000
      5          7           0        0.628024   -1.001740    0.000000
      6          1           0        2.087687    0.554985    0.000000
      7          1           0       -0.057842    2.049621    0.000000
 ---------------------------------------------------------------------

 SCF Done:  E(RPBE1PBE) =  -258.061392572     A.U. after    1 cycles

 The electronic state is 1-A'.
 Alpha  occ. eigenvalues --  -14.50204 -14.46542 -14.44838 -14.41938 -10.31682
 Alpha  occ. eigenvalues --   -1.18868  -0.98332  -0.92734  -0.70704  -0.69355
 Alpha  occ. eigenvalues --   -0.62149  -0.52618  -0.51956  -0.40200  -0.35293
 Alpha  occ. eigenvalues --   -0.32847  -0.32333  -0.30865
 Alpha virt. eigenvalues --   -0.01787   0.01814   0.02491   0.07028   0.15429
 Alpha virt. eigenvalues --    0.17549   0.18253   0.25516   0.28412   0.30238
 Alpha virt. eigenvalues --    0.37344   0.37969   0.40221   0.42470   0.43673

 Mulliken charges:
               1
     1  C   -0.024767
     2  N    0.008610
     3  N   -0.082184
     4  N   -0.074334
     5  N   -0.152844
     6  H    0.143644
     7  H    0.181875
 Sum of Mulliken charges =   0.00000

 Dipole moment (field-independent basis, Debye):
    X=              2.4517    Y=              4.7113    Z=              0.0000  Tot=              5.3110
 Quadrupole moment (field-independent basis, Debye-Ang):
   XX=            -28.7491   YY=            -26.1815   ZZ=            -28.2208
   XY=              1.8044   XZ=              0.0000   YZ=              0.0000

  Exact polarizability:  40.930   0.821  40.170   0.000   0.000  20.750
 Approx polarizability:  66.410   0.569  69.401   0.000   0.000  31.189

                      1                      2                      3
                     A"                     A"                     A"
 Frequencies --    609.2024               703.8676               758.3328
 Red. masses --      1.6909                 2.0096                 8.2090
 Frc consts  --      0.3697                 0.5866                 2.7814
 IR Inten    --     78.8857                 6.3592                 8.3686

                      4                      5                      6
                     A"                     A'                     A'
 Frequencies --    876.6519               993.2984              1028.7858
 Red. masses --      1.3951                 4.1246                 5.5789
 Frc consts  --      0.6317                 2.3977                 3.4789
 IR Inten    --     17.5579                 3.4031                 1.3910

                      7                      8                      9
                     A'                     A'                     A'
 Frequencies --   1087.7918              1097.3581              1160.9220
 Red. masses --      3.5353                 3.7816                 2.0936
 Frc consts  --      2.4647                 2.6830                 1.6624
 IR Inten    --     21.2829                26.5928                12.8585

                     10                     11                     12
                     A'                     A'                     A'
 Frequencies --   1287.0523              1333.5917              1482.3307
 Red. masses --      2.5149                10.4727                 3.3783
 Frc consts  --      2.4545                10.9738                 4.3736
 IR Inten    --      1.5910                13.6933                 8.1413

                     13                     14                     15
                     A'                     A'                     A'
 Frequencies --   1531.9881              3294.1953              3685.3267
 Red. masses --      3.5951                 1.1017                 1.0838
 Frc consts  --      4.9714                 7.0440                 8.6728
 IR Inten    --     15.7936                 1.5404                95.1248

 - Thermochemistry -
 -------------------
 Temperature   298.150 Kelvin.  Pressure   1.00000 Atm.
 Atom     1 has atomic number  6 and mass  12.00000

 Molecular mass:    70.02795 amu.
 Principal axes and moments of inertia in atomic units:
                           1         2         3
     Eigenvalues --   168.79934 171.50744 340.30678
           X            0.83105   0.55620   0.00000
           Y           -0.55620   0.83105   0.00000
           Z            0.00000   0.00000   1.00000
 This molecule is an asymmetric top.
 Rotational symmetry number  1.
 Rotational temperatures (Kelvin)      0.51312     0.50501     0.25452
 Rotational constants (GHZ):          10.69164    10.52282     5.30328
 Zero-point vibrational energy     125193.4 (Joules/Mol)
                                   29.92193 (Kcal/Mol)
 Warning -- explicit consideration of   1 degrees of freedom as
           vibrations may cause significant error
 Vibrational temperatures:    876.51  1012.71  1091.07  1261.31  1429.13
          (Kelvin)           1480.19  1565.09  1578.85  1670.31  1851.78
                             1918.74  2132.74  2204.19  4739.61  5302.36

 Zero-point correction=                           0.047684 (Hartree/Particle)
 Thermal correction to Energy=                    0.051105
 Thermal correction to Enthalpy=                  0.052050
 Thermal correction to Gibbs Free Energy=         0.021630
 Sum of electronic and zero-point Energies=           -258.013709
 Sum of electronic and thermal Energies=              -258.010287
 Sum of electronic and thermal Enthalpies=            -258.009343
 Sum of electronic and thermal Free Energies=         -258.039763

                     E (Thermal)             CV                S
                      KCal/Mol        Cal/Mol-Kelvin    Cal/Mol-Kelvin
 Total                   32.069             11.020             64.024
 Electronic               0.000              0.000              0.000
 Translational            0.889              2.981             38.656
 Rotational               0.889              2.981             23.803
 Vibrational             30.292              5.058              1.565
 Vibration     1          0.968              1.012              0.434

 Normal termination of Gaussian 09 at Mon Nov 25 19:26:05 2013.
