 Gaussian 09, Revision D.01,
 Gaussian 09:  EM64L-G09RevD.01 24-Apr-2013

 ------------------------
 #PBE1PBE/3-21G* opt freq
 ------------------------

 ------------------------------------------------------------------
 1H-tetrazole CH2N4 casno=288948 state=1 config=1 method=54 basis=2
 ------------------------------------------------------------------
 Symbolic Z-matrix:
 Charge =  0 Multiplicity = 1

 SCF Done:  E(RPBE1PBE) =  -256.484809596     A.U. after   14 cycles
 SCF Done:  E(RPBE1PBE) =  -256.501319145     A.U. after   15 cycles
 SCF Done:  E(RPBE1PBE) =  -256.502287027     A.U. after   13 cycles
 SCF Done:  E(RPBE1PBE) =  -256.502600665     A.U. after   12 cycles
 SCF Done:  E(RPBE1PBE) =  -256.502671015     A.U. after   10 cycles
 SCF Done:  E(RPBE1PBE) =  -256.502678438     A.U. after    9 cycles
 SCF Done:  E(RPBE1PBE) =  -256.502681189     A.U. after    9 cycles
 Optimization completed.
    -- Stationary point found.
 Normal termination of Gaussian 09 at Mon Dec 16 15:18:34 2013.

 --------------------------------------------------------------------
 #P Geom=AllCheck Guess=TCheck SCRF=Check GenChk RPBE1PBE/3-21G* Freq
 --------------------------------------------------------------------

 Structure from the checkpoint file:  "/tmp/rdj3/g09-18029/Gau-29753.chk"
 ------------------------------------------------------------------
 1H-tetrazole CH2N4 casno=288948 state=1 config=1 method=54 basis=2
 ------------------------------------------------------------------
 Charge =  0 Multiplicity = 1

                         Standard orientation:
 ---------------------------------------------------------------------
 Center     Atomic      Atomic             Coordinates (Angstroms)
 Number     Number       Type             X           Y           Z
 ---------------------------------------------------------------------
      1          6           0        1.076034    0.257582    0.000000
      2          7           0        0.000000    1.078298    0.000000
      3          7           0       -1.162615    0.292139    0.000000
      4          7           0       -0.738693   -0.963498    0.000000
      5          7           0        0.689375   -1.010822    0.000000
      6          1           0        2.096100    0.594428    0.000000
      7          1           0       -0.068768    2.087264    0.000000
 ---------------------------------------------------------------------

 SCF Done:  E(RPBE1PBE) =  -256.502681189     A.U. after    1 cycles

 The electronic state is 1-A'.
 Alpha  occ. eigenvalues --  -14.44572 -14.41777 -14.39908 -14.36680 -10.28475
 Alpha  occ. eigenvalues --   -1.18401  -0.97896  -0.94386  -0.70311  -0.69372
 Alpha  occ. eigenvalues --   -0.62508  -0.51599  -0.51061  -0.38695  -0.34424
 Alpha  occ. eigenvalues --   -0.32974  -0.31599  -0.30527
 Alpha virt. eigenvalues --   -0.02701   0.01455   0.08619   0.11023   0.17640
 Alpha virt. eigenvalues --    0.20750   0.26757   0.36229   0.40276   0.68564
 Alpha virt. eigenvalues --    0.70787   0.81870   0.84592   0.93620   1.03143

 Mulliken charges:
               1
     1  C    0.329585
     2  N   -0.564630
     3  N   -0.029740
     4  N   -0.079984
     5  N   -0.347334
     6  H    0.301163
     7  H    0.390939
 Sum of Mulliken charges =   0.00000

 Dipole moment (field-independent basis, Debye):
    X=              2.5285    Y=              4.9849    Z=              0.0000  Tot=              5.5895
 Quadrupole moment (field-independent basis, Debye-Ang):
   XX=            -29.0408   YY=            -26.4484   ZZ=            -28.6724
   XY=              2.0063   XZ=              0.0000   YZ=              0.0000

  Exact polarizability:  34.655   1.227  34.218   0.000   0.000  11.339
 Approx polarizability:  62.716  -0.516  69.410   0.000   0.000  14.111

                      1                      2                      3
                     A"                     A"                     A"
 Frequencies --    657.4799               695.3966               701.1624
 Red. masses --      4.1152                 2.4937                 1.7406
 Frc consts  --      1.0481                 0.7105                 0.5042
 IR Inten    --     49.5119                24.6966                94.9816

                      4                      5                      6
                     A'                     A'                     A"
 Frequencies --    820.9674               904.0676               929.9002
 Red. masses --      9.6974                 6.0961                 1.3965
 Frc consts  --      3.8508                 2.9356                 0.7115
 IR Inten    --      9.1726                15.2753                16.2817

                      7                      8                      9
                     A'                     A'                     A'
 Frequencies --    997.0410              1024.4036              1100.9887
 Red. masses --      4.7142                 6.2805                 6.4672
 Frc consts  --      2.7611                 3.8831                 4.6188
 IR Inten    --      9.2436                 8.9610                 3.0685

                     10                     11                     12
                     A'                     A'                     A'
 Frequencies --   1162.9701              1230.8883              1387.1489
 Red. masses --      1.9867                 2.2736                 3.0027
 Frc consts  --      1.5832                 2.0295                 3.4042
 IR Inten    --     13.5661                 5.9889                 4.8352

                     13                     14                     15
                     A'                     A'                     A'
 Frequencies --   1454.3157              3347.8947              3634.9519
 Red. masses --      2.2335                 1.1005                 1.0847
 Frc consts  --      2.7833                 7.2675                 8.4440
 IR Inten    --     42.3673                 3.5592               117.3961

 - Thermochemistry -
 -------------------
 Temperature   298.150 Kelvin.  Pressure   1.00000 Atm.
 Atom     1 has atomic number  6 and mass  12.00000

 Molecular mass:    70.02795 amu.
 Principal axes and moments of inertia in atomic units:
                           1         2         3
     Eigenvalues --   179.26338 183.97923 363.24260
           X            0.98970   0.14312   0.00000
           Y           -0.14312   0.98970   0.00000
           Z            0.00000   0.00000   1.00000
 This molecule is an asymmetric top.
 Rotational symmetry number  1.
 Rotational temperatures (Kelvin)      0.48317     0.47078     0.23845
 Rotational constants (GHZ):          10.06754     9.80948     4.96842
 Zero-point vibrational energy     119923.1 (Joules/Mol)
                                   28.66231 (Kcal/Mol)
 Vibrational temperatures:    945.97  1000.52  1008.82  1181.19  1300.75
          (Kelvin)           1337.92  1434.52  1473.89  1584.08  1673.25
                             1770.97  1995.80  2092.43  4816.87  5229.88

 Zero-point correction=                           0.045676 (Hartree/Particle)
 Thermal correction to Energy=                    0.049184
 Thermal correction to Enthalpy=                  0.050128
 Thermal correction to Gibbs Free Energy=         0.019510
 Sum of electronic and zero-point Energies=           -256.457005
 Sum of electronic and thermal Energies=              -256.453497
 Sum of electronic and thermal Enthalpies=            -256.452553
 Sum of electronic and thermal Free Energies=         -256.483171

                     E (Thermal)             CV                S
                      KCal/Mol        Cal/Mol-Kelvin    Cal/Mol-Kelvin
 Total                   30.863             11.736             64.442
 Electronic               0.000              0.000              0.000
 Translational            0.889              2.981             38.656
 Rotational               0.889              2.981             23.997
 Vibrational             29.086              5.775              1.789

 Optimization completed.
    -- Stationary point found.
 Normal termination of Gaussian 09 at Mon Dec 16 15:18:38 2013.
