 Gaussian 09, Revision D.01,
 Gaussian 09:  EM64L-G09RevD.01 24-Apr-2013

 -----------------------------
 #PBE1PBE/6-311G(d,p) opt freq
 -----------------------------

 -------------------------------------------------------------------
 1H-tetrazole CH2N4 casno=288948 state=1 config=1 method=54 basis=21
 -------------------------------------------------------------------
 Symbolic Z-matrix:
 Charge =  0 Multiplicity = 1

 SCF Done:  E(RPBE1PBE) =  -258.030044475     A.U. after   14 cycles
 SCF Done:  E(RPBE1PBE) =  -258.031929151     A.U. after   12 cycles
 SCF Done:  E(RPBE1PBE) =  -258.031970447     A.U. after    9 cycles
 SCF Done:  E(RPBE1PBE) =  -258.031979962     A.U. after    9 cycles
 SCF Done:  E(RPBE1PBE) =  -258.031982080     A.U. after    8 cycles
 Optimization completed.
    -- Stationary point found.
 Normal termination of Gaussian 09 at Mon Dec 16 15:18:11 2013.

 ----------------------------------------------------------------------
 #P Geom=AllCheck Guess=TCheck SCRF=Check GenChk RPBE1PBE/6-311G(d,p) F
 req
 ----------------------------------------------------------------------

 Structure from the checkpoint file:  "/tmp/rdj3/g09-18029/Gau-29170.chk"
 -------------------------------------------------------------------
 1H-tetrazole CH2N4 casno=288948 state=1 config=1 method=54 basis=21
 -------------------------------------------------------------------
 Charge =  0 Multiplicity = 1

                         Standard orientation:
 ---------------------------------------------------------------------
 Center     Atomic      Atomic             Coordinates (Angstroms)
 Number     Number       Type             X           Y           Z
 ---------------------------------------------------------------------
      1          6           0        1.062483    0.231365    0.000000
      2          7           0        0.000000    1.047770    0.000000
      3          7           0       -1.111014    0.301882    0.000000
      4          7           0       -0.719231   -0.917629    0.000000
      5          7           0        0.629447   -1.002904    0.000000
      6          1           0        2.090816    0.554793    0.000000
      7          1           0       -0.060125    2.053186    0.000000
 ---------------------------------------------------------------------

 SCF Done:  E(RPBE1PBE) =  -258.031982080     A.U. after    1 cycles

 The electronic state is 1-A'.
 Alpha  occ. eigenvalues --  -14.49699 -14.45856 -14.44040 -14.41224 -10.31441
 Alpha  occ. eigenvalues --   -1.19108  -0.98486  -0.92979  -0.70829  -0.69447
 Alpha  occ. eigenvalues --   -0.62270  -0.52495  -0.52082  -0.40108  -0.35248
 Alpha  occ. eigenvalues --   -0.32887  -0.32262  -0.30725
 Alpha virt. eigenvalues --   -0.01765   0.02037   0.02983   0.07364   0.17931
 Alpha virt. eigenvalues --    0.19245   0.22729   0.28617   0.33678   0.39794
 Alpha virt. eigenvalues --    0.41877   0.44204   0.50213   0.55805   0.56975

 Mulliken charges:
               1
     1  C    0.241645
     2  N   -0.288362
     3  N   -0.030323
     4  N   -0.086448
     5  N   -0.251179
     6  H    0.154654
     7  H    0.260014
 Sum of Mulliken charges =   0.00000

 Dipole moment (field-independent basis, Debye):
    X=              2.5115    Y=              4.8026    Z=              0.0000  Tot=              5.4197
 Quadrupole moment (field-independent basis, Debye-Ang):
   XX=            -28.7772   YY=            -26.3010   ZZ=            -28.2292
   XY=              1.8045   XZ=              0.0000   YZ=              0.0000

  Exact polarizability:  38.523   0.962  37.936   0.000   0.000  17.700
 Approx polarizability:  63.198   0.506  66.734   0.000   0.000  25.803

                      1                      2                      3
                     A"                     A"                     A"
 Frequencies --    628.3845               707.1509               755.0460
 Red. masses --      1.9960                 1.7692                 7.3281
 Frc consts  --      0.4644                 0.5213                 2.4614
 IR Inten    --     79.9591                15.2383                10.5597

                      4                      5                      6
                     A"                     A'                     A'
 Frequencies --    876.2092               994.3796              1030.1691
 Red. masses --      1.3794                 4.0114                 5.7012
 Frc consts  --      0.6240                 2.3370                 3.5648
 IR Inten    --     17.4593                 4.0994                 1.2110

                      7                      8                      9
                     A'                     A'                     A'
 Frequencies --   1088.8275              1102.8711              1162.9265
 Red. masses --      3.5811                 3.7201                 2.1053
 Frc consts  --      2.5014                 2.6660                 1.6775
 IR Inten    --     22.6228                27.4252                12.6065

                     10                     11                     12
                     A'                     A'                     A'
 Frequencies --   1290.2003              1339.7137              1487.3758
 Red. masses --      2.5665                 9.7738                 3.4926
 Frc consts  --      2.5171                10.3357                 4.5524
 IR Inten    --      1.2936                17.6232                 8.7306

                     13                     14                     15
                     A'                     A'                     A'
 Frequencies --   1538.6625              3302.4518              3691.1990
 Red. masses --      3.4712                 1.1018                 1.0840
 Frc consts  --      4.8419                 7.0796                 8.7018
 IR Inten    --     16.5337                 1.9051               101.6587

 - Thermochemistry -
 -------------------
 Temperature   298.150 Kelvin.  Pressure   1.00000 Atm.
 Atom     1 has atomic number  6 and mass  12.00000

 Molecular mass:    70.02795 amu.
 Principal axes and moments of inertia in atomic units:
                           1         2         3
     Eigenvalues --   169.23226 172.17662 341.40888
           X            0.84181   0.53978   0.00000
           Y           -0.53978   0.84181   0.00000
           Z            0.00000   0.00000   1.00000
 This molecule is an asymmetric top.
 Rotational symmetry number  1.
 Rotational temperatures (Kelvin)      0.51180     0.50305     0.25370
 Rotational constants (GHZ):          10.66429    10.48192     5.28616
 Zero-point vibrational energy     125581.4 (Joules/Mol)
                                   30.01467 (Kcal/Mol)
 Vibrational temperatures:    904.10  1017.43  1086.34  1260.67  1430.69
          (Kelvin)           1482.18  1566.58  1586.78  1673.19  1856.31
                             1927.55  2140.00  2213.79  4751.49  5310.81

 Zero-point correction=                           0.047831 (Hartree/Particle)
 Thermal correction to Energy=                    0.051241
 Thermal correction to Enthalpy=                  0.052186
 Thermal correction to Gibbs Free Energy=         0.021778
 Sum of electronic and zero-point Energies=           -257.984151
 Sum of electronic and thermal Energies=              -257.980741
 Sum of electronic and thermal Enthalpies=            -257.979797
 Sum of electronic and thermal Free Energies=         -258.010204

                     E (Thermal)             CV                S
                      KCal/Mol        Cal/Mol-Kelvin    Cal/Mol-Kelvin
 Total                   32.154             10.963             63.998
 Electronic               0.000              0.000              0.000
 Translational            0.889              2.981             38.656
 Rotational               0.889              2.981             23.813
 Vibrational             30.377              5.002              1.529

 Optimization completed.
    -- Stationary point found.
 Normal termination of Gaussian 09 at Mon Dec 16 15:18:22 2013.
