 Gaussian 09, Revision D.01,
 Gaussian 09:  EM64L-G09RevD.01 24-Apr-2013

 --------------------------------------
 #PBE1PBE/aug-cc-pVTZ opt=z-matrix freq
 --------------------------------------

 -------------------------------------------------------------------
 1H-tetrazole CH2N4 casno=288948 state=1 config=1 method=54 basis=18
 -------------------------------------------------------------------
 Symbolic Z-matrix:
 Charge =  0 Multiplicity = 1

 SCF Done:  E(RPBE1PBE) =  -258.064413175     A.U. after   12 cycles
 SCF Done:  E(RPBE1PBE) =  -258.065919380     A.U. after   10 cycles
 SCF Done:  E(RPBE1PBE) =  -258.065947178     A.U. after    9 cycles
 SCF Done:  E(RPBE1PBE) =  -258.065968212     A.U. after    8 cycles
 SCF Done:  E(RPBE1PBE) =  -258.065572149     A.U. after    9 cycles
 SCF Done:  E(RPBE1PBE) =  -258.065976823     A.U. after    7 cycles
 SCF Done:  E(RPBE1PBE) =  -258.065979894     A.U. after    8 cycles
 SCF Done:  E(RPBE1PBE) =  -258.065785359     A.U. after   10 cycles
 SCF Done:  E(RPBE1PBE) =  -258.065981938     A.U. after    6 cycles
 SCF Done:  E(RPBE1PBE) =  -258.065893450     A.U. after    9 cycles
 SCF Done:  E(RPBE1PBE) =  -258.058596013     A.U. after   11 cycles
 SCF Done:  E(RPBE1PBE) =  -258.064619498     A.U. after   11 cycles
 SCF Done:  E(RPBE1PBE) =  -258.065981954     A.U. after    3 cycles
 SCF Done:  E(RPBE1PBE) =  -258.065932408     A.U. after    9 cycles
 SCF Done:  E(RPBE1PBE) =  -258.065982007     A.U. after    5 cycles
 SCF Done:  E(RPBE1PBE) =  -258.065982542     A.U. after    7 cycles
 SCF Done:  E(RPBE1PBE) =  -258.065982611     A.U. after    6 cycles
 Optimization completed.
    -- Stationary point found.
 Normal termination of Gaussian 09 at Mon Nov 25 19:01:51 2013.

 ----------------------------------------------------------------------
 #P Geom=AllCheck Guess=TCheck SCRF=Check GenChk RPBE1PBE/Aug-CC-pVTZ F
 req
 ----------------------------------------------------------------------

 Structure from the checkpoint file:  "/tmp/rdj3/g09-23219/Gau-3105.chk"
 -------------------------------------------------------------------
 1H-tetrazole CH2N4 casno=288948 state=1 config=1 method=54 basis=18
 -------------------------------------------------------------------
 Charge =  0 Multiplicity = 1

                         Standard orientation:
 ---------------------------------------------------------------------
 Center     Atomic      Atomic             Coordinates (Angstroms)
 Number     Number       Type             X           Y           Z
 ---------------------------------------------------------------------
      1          6           0        1.060554    0.232295    0.000000
      2          7           0        0.000000    1.045746    0.000000
      3          7           0       -1.108309    0.301500    0.000000
      4          7           0       -0.718420   -0.917213    0.000000
      5          7           0        0.627810   -1.001320    0.000000
      6          1           0        2.087767    0.555614    0.000000
      7          1           0       -0.058661    2.049629    0.000000
 ---------------------------------------------------------------------

 SCF Done:  E(RPBE1PBE) =  -258.065982611     A.U. after    1 cycles

 The electronic state is 1-A'.
 Alpha  occ. eigenvalues --  -14.50596 -14.47059 -14.45406 -14.42432 -10.32037
 Alpha  occ. eigenvalues --   -1.19299  -0.98745  -0.93149  -0.71094  -0.69760
 Alpha  occ. eigenvalues --   -0.62512  -0.53010  -0.52321  -0.40645  -0.35714
 Alpha  occ. eigenvalues --   -0.33239  -0.32808  -0.31350
 Alpha virt. eigenvalues --   -0.02444  -0.01984   0.00788   0.01114   0.03725
 Alpha virt. eigenvalues --    0.04171   0.05791   0.06692   0.07447   0.08329
 Alpha virt. eigenvalues --    0.09059   0.09586   0.11024   0.12626   0.13430

 Mulliken charges:
               1
     1  C   -0.173207
     2  N    0.212706
     3  N   -0.298189
     4  N   -0.165118
     5  N   -0.251944
     6  H    0.535850
     7  H    0.139902
 Sum of Mulliken charges =   0.00000

 Dipole moment (field-independent basis, Debye):
    X=              2.5033    Y=              4.7387    Z=              0.0000  Tot=              5.3592
 Quadrupole moment (field-independent basis, Debye-Ang):
   XX=            -29.0781   YY=            -26.5501   ZZ=            -28.5761
   XY=              1.8565   XZ=              0.0000   YZ=              0.0000

  Exact polarizability:  45.049   0.526  44.487   0.000   0.000  26.143
 Approx polarizability:  70.324   0.431  73.449   0.000   0.000  37.431

                      1                      2                      3
                     A"                     A"                     A"
 Frequencies --    615.8690               703.3998               757.0706
 Red. masses --      1.7140                 1.9708                 8.2957
 Frc consts  --      0.3830                 0.5745                 2.8014
 IR Inten    --     79.3265                 7.4574                 7.8703

                      4                      5                      6
                     A"                     A'                     A'
 Frequencies --    878.0616               991.9075              1027.4269
 Red. masses --      1.3962                 4.1325                 5.7646
 Frc consts  --      0.6342                 2.3956                 3.5853
 IR Inten    --     16.5702                 3.0960                 1.1316

                      7                      8                      9
                     A'                     A'                     A'
 Frequencies --   1086.9302              1096.2229              1159.1881
 Red. masses --      3.5996                 3.7467                 2.0649
 Frc consts  --      2.5056                 2.6528                 1.6348
 IR Inten    --     19.3437                27.7803                12.0321

                     10                     11                     12
                     A'                     A'                     A'
 Frequencies --   1285.7249              1330.9257              1480.9965
 Red. masses --      2.4997                10.6023                 3.3982
 Frc consts  --      2.4346                11.0652                 4.3915
 IR Inten    --      1.5505                12.9908                 8.7537

                     13                     14                     15
                     A'                     A'                     A'
 Frequencies --   1529.0793              3294.2221              3680.7635
 Red. masses --      3.5590                 1.1018                 1.0839
 Frc consts  --      4.9027                 7.0449                 8.6519
 IR Inten    --     16.3854                 2.0387                98.0527

 - Thermochemistry -
 -------------------
 Temperature   298.150 Kelvin.  Pressure   1.00000 Atm.
 Atom     1 has atomic number  6 and mass  12.00000

 Molecular mass:    70.02795 amu.
 Principal axes and moments of inertia in atomic units:
                           1         2         3
     Eigenvalues --   168.87449 171.40092 340.27541
           X            0.83490   0.55040   0.00000
           Y           -0.55040   0.83490   0.00000
           Z            0.00000   0.00000   1.00000
 This molecule is an asymmetric top.
 Rotational symmetry number  1.
 Rotational temperatures (Kelvin)      0.51289     0.50533     0.25454
 Rotational constants (GHZ):          10.68688    10.52936     5.30377
 Zero-point vibrational energy     125116.2 (Joules/Mol)
                                   29.90348 (Kcal/Mol)
 Warning -- explicit consideration of   1 degrees of freedom as
           vibrations may cause significant error
 Vibrational temperatures:    886.10  1012.03  1089.25  1263.33  1427.13
          (Kelvin)           1478.24  1563.85  1577.22  1667.81  1849.87
                             1914.90  2130.82  2200.00  4739.64  5295.79

 Zero-point correction=                           0.047654 (Hartree/Particle)
 Thermal correction to Energy=                    0.051074
 Thermal correction to Enthalpy=                  0.052018
 Thermal correction to Gibbs Free Energy=         0.021602
 Sum of electronic and zero-point Energies=           -258.018328
 Sum of electronic and thermal Energies=              -258.014909
 Sum of electronic and thermal Enthalpies=            -258.013965
 Sum of electronic and thermal Free Energies=         -258.044381

                     E (Thermal)             CV                S
                      KCal/Mol        Cal/Mol-Kelvin    Cal/Mol-Kelvin
 Total                   32.049             11.016             64.016
 Electronic               0.000              0.000              0.000
 Translational            0.889              2.981             38.656
 Rotational               0.889              2.981             23.803
 Vibrational             30.272              5.054              1.557
 Vibration     1          0.975              0.998              0.423

 Normal termination of Gaussian 09 at Mon Nov 25 19:09:29 2013.
