 Gaussian 09, Revision D.01,
 Gaussian 09:  EM64L-G09RevD.01 24-Apr-2013

 ------------------------
 #PBE1PBE/STO-3G opt freq
 ------------------------

 -------------------------------------------------------------------
 1H-tetrazole CH2N4 casno=288948 state=1 config=1 method=54 basis=20
 -------------------------------------------------------------------
 Symbolic Z-matrix:
 Charge =  0 Multiplicity = 1

 SCF Done:  E(RPBE1PBE) =  -254.614901900     A.U. after   14 cycles
 SCF Done:  E(RPBE1PBE) =  -254.658676782     A.U. after   13 cycles
 SCF Done:  E(RPBE1PBE) =  -254.660903775     A.U. after   12 cycles
 SCF Done:  E(RPBE1PBE) =  -254.660965424     A.U. after   13 cycles
 SCF Done:  E(RPBE1PBE) =  -254.661089568     A.U. after   10 cycles
 SCF Done:  E(RPBE1PBE) =  -254.661090188     A.U. after    8 cycles
 Optimization completed.
    -- Stationary point found.
 Normal termination of Gaussian 09 at Mon Dec 16 15:17:52 2013.

 --------------------------------------------------------------------
 #P Geom=AllCheck Guess=TCheck SCRF=Check GenChk RPBE1PBE/STO-3G Freq
 --------------------------------------------------------------------

 Structure from the checkpoint file:  "/tmp/rdj3/g09-18029/Gau-28510.chk"
 -------------------------------------------------------------------
 1H-tetrazole CH2N4 casno=288948 state=1 config=1 method=54 basis=20
 -------------------------------------------------------------------
 Charge =  0 Multiplicity = 1

                         Standard orientation:
 ---------------------------------------------------------------------
 Center     Atomic      Atomic             Coordinates (Angstroms)
 Number     Number       Type             X           Y           Z
 ---------------------------------------------------------------------
      1          6           0        1.098230    0.253544    0.000000
      2          7           0        0.000000    1.093619    0.000000
      3          7           0       -1.186267    0.313991    0.000000
      4          7           0       -0.748051   -0.976738    0.000000
      5          7           0        0.693437   -1.041467    0.000000
      6          1           0        2.132810    0.614466    0.000000
      7          1           0       -0.036026    2.138435    0.000000
 ---------------------------------------------------------------------

 SCF Done:  E(RPBE1PBE) =  -254.661090188     A.U. after    1 cycles

 The electronic state is 1-A'.
 Alpha  occ. eigenvalues --  -14.34437 -14.27508 -14.24618 -14.22328 -10.15151
 Alpha  occ. eigenvalues --   -1.09014  -0.90801  -0.86230  -0.63988  -0.62037
 Alpha  occ. eigenvalues --   -0.55346  -0.44827  -0.42829  -0.30799  -0.26138
 Alpha  occ. eigenvalues --   -0.24974  -0.24198  -0.22608
 Alpha virt. eigenvalues --    0.05237   0.09769   0.23480   0.26077   0.35905
 Alpha virt. eigenvalues --    0.37270   0.39272   0.53611   0.59470

 Mulliken charges:
               1
     1  C    0.063611
     2  N   -0.196801
     3  N   -0.045306
     4  N   -0.065967
     5  N   -0.152938
     6  H    0.132338
     7  H    0.265063
 Sum of Mulliken charges =   0.00000

 Dipole moment (field-independent basis, Debye):
    X=              2.1482    Y=              4.4522    Z=              0.0000  Tot=              4.9434
 Quadrupole moment (field-independent basis, Debye-Ang):
   XX=            -27.4175   YY=            -24.6710   ZZ=            -25.9094
   XY=              1.7665   XZ=              0.0000   YZ=              0.0000

  Exact polarizability:  24.332   1.183  25.177   0.000   0.000   6.148
 Approx polarizability:  51.930  -0.889  60.103   0.000   0.000   7.569

                      1                      2                      3
                     A"                     A"                     A"
 Frequencies --    495.6802               651.9994               668.9498
 Red. masses --      1.9114                 2.0440                 7.7235
 Frc consts  --      0.2767                 0.5119                 2.0363
 IR Inten    --     83.2576                15.4665                 8.6396

                      4                      5                      6
                     A"                     A'                     A'
 Frequencies --    851.4172               935.6595               977.0773
 Red. masses --      1.2636                 5.5056                 5.9530
 Frc consts  --      0.5397                 2.8398                 3.3485
 IR Inten    --     11.1808                 0.8472                 0.2785

                      7                      8                      9
                     A'                     A'                     A'
 Frequencies --   1051.5956              1062.9794              1148.6451
 Red. masses --      3.7917                 3.7895                 1.5029
 Frc consts  --      2.4705                 2.5228                 1.1683
 IR Inten    --     17.8087                17.6693                 7.6886

                     10                     11                     12
                     A'                     A'                     A'
 Frequencies --   1258.4003              1273.1916              1492.5770
 Red. masses --      9.8882                 3.0127                 3.7785
 Frc consts  --      9.2258                 2.8774                 4.9596
 IR Inten    --      0.0675                 1.6846                14.7004

                     13                     14                     15
                     A'                     A'                     A'
 Frequencies --   1530.7444              3547.5471              3785.4852
 Red. masses --      3.5837                 1.1017                 1.0867
 Frc consts  --      4.9476                 8.1692                 9.1751
 IR Inten    --     31.3745                39.7526                94.0372

 - Thermochemistry -
 -------------------
 Temperature   298.150 Kelvin.  Pressure   1.00000 Atm.
 Atom     1 has atomic number  6 and mass  12.00000

 Molecular mass:    70.02795 amu.
 Principal axes and moments of inertia in atomic units:
                           1         2         3
     Eigenvalues --   185.84772 191.26301 377.11073
           X            0.90033   0.43521   0.00000
           Y           -0.43521   0.90033   0.00000
           Z            0.00000   0.00000   1.00000
 This molecule is an asymmetric top.
 Rotational symmetry number  1.
 Rotational temperatures (Kelvin)      0.46605     0.45285     0.22968
 Rotational constants (GHZ):           9.71086     9.43591     4.78571
 Zero-point vibrational energy     124004.6 (Joules/Mol)
                                   29.63781 (Kcal/Mol)
 Warning -- explicit consideration of   1 degrees of freedom as
           vibrations may cause significant error
 Vibrational temperatures:    713.17   938.08   962.47  1225.00  1346.20
          (Kelvin)           1405.79  1513.01  1529.39  1652.64  1810.56
                             1831.84  2147.48  2202.40  5104.12  5446.46

 Zero-point correction=                           0.047231 (Hartree/Particle)
 Thermal correction to Energy=                    0.050817
 Thermal correction to Enthalpy=                  0.051761
 Thermal correction to Gibbs Free Energy=         0.020960
 Sum of electronic and zero-point Energies=           -254.613859
 Sum of electronic and thermal Energies=              -254.610273
 Sum of electronic and thermal Enthalpies=            -254.609329
 Sum of electronic and thermal Free Energies=         -254.640130

                     E (Thermal)             CV                S
                      KCal/Mol        Cal/Mol-Kelvin    Cal/Mol-Kelvin
 Total                   31.888             11.814             64.826
 Electronic               0.000              0.000              0.000
 Translational            0.889              2.981             38.656
 Rotational               0.889              2.981             24.109
 Vibrational             30.111              5.853              2.060
 Vibration     1          0.851              1.260              0.669

 Optimization completed.
    -- Stationary point found.
 Normal termination of Gaussian 09 at Mon Dec 16 15:17:55 2013.
