 Gaussian 09, Revision D.01,
 Gaussian 09:  EM64L-G09RevD.01 24-Apr-2013

 -------------------------
 #PBE1PBE/6-311G* opt freq
 -------------------------

 ------------------------------------------------------------------
 1H-tetrazole CH2N4 casno=288948 state=1 config=1 method=54 basis=7
 ------------------------------------------------------------------
 Symbolic Z-matrix:
 Charge =  0 Multiplicity = 1

 SCF Done:  E(RPBE1PBE) =  -258.024989461     A.U. after   14 cycles
 SCF Done:  E(RPBE1PBE) =  -258.026845774     A.U. after   12 cycles
 SCF Done:  E(RPBE1PBE) =  -258.026887518     A.U. after    9 cycles
 SCF Done:  E(RPBE1PBE) =  -258.026897249     A.U. after    9 cycles
 SCF Done:  E(RPBE1PBE) =  -258.026899481     A.U. after    8 cycles
 Optimization completed.
    -- Stationary point found.
 Normal termination of Gaussian 09 at Mon Dec 16 15:20:29 2013.

 ----------------------------------------------------------------------
 #P Geom=AllCheck Guess=TCheck SCRF=Check GenChk RPBE1PBE/6-311G(d) Fre
 q
 ----------------------------------------------------------------------

 Structure from the checkpoint file:  "/tmp/rdj3/g09-18029/Gau-357.chk"
 ------------------------------------------------------------------
 1H-tetrazole CH2N4 casno=288948 state=1 config=1 method=54 basis=7
 ------------------------------------------------------------------
 Charge =  0 Multiplicity = 1

                         Standard orientation:
 ---------------------------------------------------------------------
 Center     Atomic      Atomic             Coordinates (Angstroms)
 Number     Number       Type             X           Y           Z
 ---------------------------------------------------------------------
      1          6           0        1.061981    0.231273    0.000000
      2          7           0        0.000000    1.047942    0.000000
      3          7           0       -1.110793    0.302037    0.000000
      4          7           0       -0.719187   -0.917695    0.000000
      5          7           0        0.629782   -1.002938    0.000000
      6          1           0        2.090653    0.554851    0.000000
      7          1           0       -0.061155    2.052084    0.000000
 ---------------------------------------------------------------------

 SCF Done:  E(RPBE1PBE) =  -258.026899481     A.U. after    1 cycles

 The electronic state is 1-A'.
 Alpha  occ. eigenvalues --  -14.49687 -14.45834 -14.44007 -14.41182 -10.31455
 Alpha  occ. eigenvalues --   -1.19115  -0.98536  -0.92980  -0.70957  -0.69465
 Alpha  occ. eigenvalues --   -0.62376  -0.52468  -0.52158  -0.40107  -0.35205
 Alpha  occ. eigenvalues --   -0.32844  -0.32244  -0.30710
 Alpha virt. eigenvalues --   -0.01630   0.02123   0.02931   0.07374   0.18057
 Alpha virt. eigenvalues --    0.19357   0.22743   0.28706   0.33704   0.39829
 Alpha virt. eigenvalues --    0.41917   0.44168   0.50627   0.56357   0.57123

 Mulliken charges:
               1
     1  C    0.139645
     2  N   -0.444002
     3  N   -0.012684
     4  N   -0.087615
     5  N   -0.246746
     6  H    0.265732
     7  H    0.385669
 Sum of Mulliken charges =   0.00000

 Dipole moment (field-independent basis, Debye):
    X=              2.5172    Y=              4.8351    Z=              0.0000  Tot=              5.4511
 Quadrupole moment (field-independent basis, Debye-Ang):
   XX=            -28.7622   YY=            -26.2185   ZZ=            -28.3161
   XY=              1.8102   XZ=              0.0000   YZ=              0.0000

  Exact polarizability:  38.311   0.937  37.696   0.000   0.000  17.454
 Approx polarizability:  62.751   0.438  66.166   0.000   0.000  25.390

                      1                      2                      3
                     A"                     A"                     A"
 Frequencies --    621.3972               708.8704               755.4495
 Red. masses --      1.9890                 1.7781                 7.4218
 Frc consts  --      0.4525                 0.5264                 2.4956
 IR Inten    --     87.1922                15.5789                10.2770

                      4                      5                      6
                     A"                     A'                     A'
 Frequencies --    860.6951               995.2171              1032.0367
 Red. masses --      1.3740                 4.1374                 5.9027
 Frc consts  --      0.5997                 2.4144                 3.7042
 IR Inten    --     19.7108                 4.3251                 1.2452

                      7                      8                      9
                     A'                     A'                     A'
 Frequencies --   1091.6866              1105.3401              1165.3207
 Red. masses --      3.8648                 3.7434                 2.0556
 Frc consts  --      2.7137                 2.6947                 1.6447
 IR Inten    --     19.8456                30.1067                12.0294

                     10                     11                     12
                     A'                     A'                     A'
 Frequencies --   1295.0049              1339.8654              1495.7786
 Red. masses --      2.5824                 9.8508                 3.5313
 Frc consts  --      2.5516                10.4194                 4.6550
 IR Inten    --      1.1979                17.7865                 8.9159

                     13                     14                     15
                     A'                     A'                     A'
 Frequencies --   1547.3416              3308.1248              3709.8708
 Red. masses --      3.1392                 1.1018                 1.0838
 Frc consts  --      4.4284                 7.1039                 8.7883
 IR Inten    --     18.0961                 0.6373                81.6035

 - Thermochemistry -
 -------------------
 Temperature   298.150 Kelvin.  Pressure   1.00000 Atm.
 Atom     1 has atomic number  6 and mass  12.00000

 Molecular mass:    70.02795 amu.
 Principal axes and moments of inertia in atomic units:
                           1         2         3
     Eigenvalues --   169.19074 172.17861 341.36935
           X            0.83312   0.55309   0.00000
           Y           -0.55309   0.83312   0.00000
           Z            0.00000   0.00000   1.00000
 This molecule is an asymmetric top.
 Rotational symmetry number  1.
 Rotational temperatures (Kelvin)      0.51193     0.50305     0.25372
 Rotational constants (GHZ):          10.66690    10.48180     5.28677
 Zero-point vibrational energy     125799.3 (Joules/Mol)
                                   30.06675 (Kcal/Mol)
 Vibrational temperatures:    894.05  1019.91  1086.92  1238.35  1431.89
          (Kelvin)           1484.87  1570.69  1590.34  1676.63  1863.22
                             1927.77  2152.09  2226.28  4759.65  5337.67

 Zero-point correction=                           0.047914 (Hartree/Particle)
 Thermal correction to Energy=                    0.051329
 Thermal correction to Enthalpy=                  0.052273
 Thermal correction to Gibbs Free Energy=         0.021859
 Sum of electronic and zero-point Energies=           -257.978985
 Sum of electronic and thermal Energies=              -257.975570
 Sum of electronic and thermal Enthalpies=            -257.974626
 Sum of electronic and thermal Free Energies=         -258.005040

                     E (Thermal)             CV                S
                      KCal/Mol        Cal/Mol-Kelvin    Cal/Mol-Kelvin
 Total                   32.209             10.980             64.012
 Electronic               0.000              0.000              0.000
 Translational            0.889              2.981             38.656
 Rotational               0.889              2.981             23.812
 Vibrational             30.432              5.019              1.543

 Optimization completed.
    -- Stationary point found.
 Normal termination of Gaussian 09 at Mon Dec 16 15:20:38 2013.
