 Gaussian 09, Revision D.01,
 Gaussian 09:  EM64L-G09RevD.01 24-Apr-2013

 ----------------------
 #PBE1PBE/TZVP opt freq
 ----------------------

 -------------------------------------------------------------------
 1H-tetrazole CH2N4 casno=288948 state=1 config=1 method=54 basis=32
 -------------------------------------------------------------------
 Symbolic Z-matrix:
 Charge =  0 Multiplicity = 1

 SCF Done:  E(RPBE1PBE) =  -258.049494816     A.U. after   14 cycles
 SCF Done:  E(RPBE1PBE) =  -258.051190756     A.U. after   12 cycles
 SCF Done:  E(RPBE1PBE) =  -258.051230385     A.U. after    9 cycles
 SCF Done:  E(RPBE1PBE) =  -258.051237946     A.U. after    9 cycles
 SCF Done:  E(RPBE1PBE) =  -258.051241605     A.U. after    8 cycles
 Optimization completed.
    -- Stationary point found.
 Normal termination of Gaussian 09 at Mon Dec 16 15:18:55 2013.

 ------------------------------------------------------------------
 #P Geom=AllCheck Guess=TCheck SCRF=Check GenChk RPBE1PBE/TZVP Freq
 ------------------------------------------------------------------

 Structure from the checkpoint file:  "/tmp/rdj3/g09-18029/Gau-30490.chk"
 -------------------------------------------------------------------
 1H-tetrazole CH2N4 casno=288948 state=1 config=1 method=54 basis=32
 -------------------------------------------------------------------
 Charge =  0 Multiplicity = 1

                         Standard orientation:
 ---------------------------------------------------------------------
 Center     Atomic      Atomic             Coordinates (Angstroms)
 Number     Number       Type             X           Y           Z
 ---------------------------------------------------------------------
      1          6           0        1.061551    0.232303    0.000000
      2          7           0        0.000000    1.047498    0.000000
      3          7           0       -1.110692    0.300268    0.000000
      4          7           0       -0.719009   -0.917812    0.000000
      5          7           0        0.630012   -1.001402    0.000000
      6          1           0        2.089932    0.553766    0.000000
      7          1           0       -0.061413    2.052554    0.000000
 ---------------------------------------------------------------------

 SCF Done:  E(RPBE1PBE) =  -258.051241605     A.U. after    1 cycles

 The electronic state is 1-A'.
 Alpha  occ. eigenvalues --  -14.50488 -14.46820 -14.45027 -14.42156 -10.31990
 Alpha  occ. eigenvalues --   -1.19707  -0.98971  -0.93518  -0.71272  -0.69950
 Alpha  occ. eigenvalues --   -0.62738  -0.52938  -0.52506  -0.40603  -0.35712
 Alpha  occ. eigenvalues --   -0.33384  -0.32744  -0.31221
 Alpha virt. eigenvalues --   -0.02374   0.01349   0.02002   0.07427   0.12297
 Alpha virt. eigenvalues --    0.13260   0.17024   0.20795   0.23812   0.27697
 Alpha virt. eigenvalues --    0.29167   0.32876   0.34805   0.35772   0.37270

 Mulliken charges:
               1
     1  C   -0.138274
     2  N   -0.074931
     3  N   -0.077417
     4  N   -0.078666
     5  N   -0.046534
     6  H    0.144907
     7  H    0.270916
 Sum of Mulliken charges =   0.00000

 Dipole moment (field-independent basis, Debye):
    X=              2.5712    Y=              4.8965    Z=              0.0000  Tot=              5.5306
 Quadrupole moment (field-independent basis, Debye-Ang):
   XX=            -29.1841   YY=            -26.6169   ZZ=            -28.4424
   XY=              1.8626   XZ=              0.0000   YZ=              0.0000

  Exact polarizability:  41.111   0.693  40.633   0.000   0.000  21.737
 Approx polarizability:  64.785   0.249  68.536   0.000   0.000  30.711

                      1                      2                      3
                     A"                     A"                     A"
 Frequencies --    595.7391               703.0395               748.5293
 Red. masses --      2.1335                 1.7779                 7.0473
 Frc consts  --      0.4461                 0.5178                 2.3264
 IR Inten    --     69.8908                16.5137                10.4002

                      4                      5                      6
                     A"                     A'                     A'
 Frequencies --    853.6530               990.7335              1026.8641
 Red. masses --      1.3252                 4.4399                 6.2455
 Frc consts  --      0.5690                 2.5677                 3.8801
 IR Inten    --     25.0570                 4.1110                 0.5958

                      7                      8                      9
                     A'                     A'                     A'
 Frequencies --   1076.4983              1093.0885              1162.5303
 Red. masses --      4.2573                 3.4834                 2.0032
 Frc consts  --      2.9068                 2.4523                 1.5951
 IR Inten    --     18.6998                31.8886                13.9055

                     10                     11                     12
                     A'                     A'                     A'
 Frequencies --   1287.5976              1328.8676              1480.7794
 Red. masses --      2.3897                10.3423                 3.3248
 Frc consts  --      2.3343                10.7605                 4.2953
 IR Inten    --      2.5264                17.0118                 8.9649

                     13                     14                     15
                     A'                     A'                     A'
 Frequencies --   1533.3450              3302.5540              3685.3157
 Red. masses --      3.4269                 1.1019                 1.0840
 Frc consts  --      4.7471                 7.0812                 8.6742
 IR Inten    --     17.1700                 2.7670               106.4212

 - Thermochemistry -
 -------------------
 Temperature   298.150 Kelvin.  Pressure   1.00000 Atm.
 Atom     1 has atomic number  6 and mass  12.00000

 Molecular mass:    70.02795 amu.
 Principal axes and moments of inertia in atomic units:
                           1         2         3
     Eigenvalues --   169.16418 171.92616 341.09034
           X            0.85967   0.51085   0.00000
           Y           -0.51085   0.85967   0.00000
           Z            0.00000   0.00000   1.00000
 This molecule is an asymmetric top.
 Rotational symmetry number  1.
 Rotational temperatures (Kelvin)      0.51201     0.50378     0.25393
 Rotational constants (GHZ):          10.66858    10.49719     5.29109
 Zero-point vibrational energy     124825.1 (Joules/Mol)
                                   29.83393 (Kcal/Mol)
 Warning -- explicit consideration of   1 degrees of freedom as
           vibrations may cause significant error
 Vibrational temperatures:    857.13  1011.52  1076.97  1228.21  1425.44
          (Kelvin)           1477.43  1548.84  1572.71  1672.62  1852.56
                             1911.94  2130.51  2206.14  4751.63  5302.34

 Zero-point correction=                           0.047543 (Hartree/Particle)
 Thermal correction to Energy=                    0.050984
 Thermal correction to Enthalpy=                  0.051928
 Thermal correction to Gibbs Free Energy=         0.021479
 Sum of electronic and zero-point Energies=           -258.003698
 Sum of electronic and thermal Energies=              -258.000258
 Sum of electronic and thermal Enthalpies=            -257.999314
 Sum of electronic and thermal Free Energies=         -258.029762

                     E (Thermal)             CV                S
                      KCal/Mol        Cal/Mol-Kelvin    Cal/Mol-Kelvin
 Total                   31.993             11.121             64.085
 Electronic               0.000              0.000              0.000
 Translational            0.889              2.981             38.656
 Rotational               0.889              2.981             23.810
 Vibrational             30.215              5.159              1.619
 Vibration     1          0.954              1.041              0.457

 Optimization completed.
    -- Stationary point found.
 Normal termination of Gaussian 09 at Mon Dec 16 15:19:07 2013.
