 Gaussian 09, Revision D.01,
 Gaussian 09:  EM64L-G09RevD.01 24-Apr-2013

 -----------------------
 #PBE1PBE/6-31G opt freq
 -----------------------

 ------------------------------------------------------------------
 1H-tetrazole CH2N4 casno=288948 state=1 config=1 method=54 basis=9
 ------------------------------------------------------------------
 Symbolic Z-matrix:
 Charge =  0 Multiplicity = 1

 SCF Done:  E(RPBE1PBE) =  -257.834803769     A.U. after   14 cycles
 SCF Done:  E(RPBE1PBE) =  -257.845066946     A.U. after   13 cycles
 SCF Done:  E(RPBE1PBE) =  -257.845283139     A.U. after   13 cycles
 SCF Done:  E(RPBE1PBE) =  -257.845506701     A.U. after   10 cycles
 SCF Done:  E(RPBE1PBE) =  -257.845516453     A.U. after    9 cycles
 SCF Done:  E(RPBE1PBE) =  -257.845518830     A.U. after    9 cycles
 Optimization completed.
    -- Stationary point found.
 Normal termination of Gaussian 09 at Mon Dec 16 15:21:06 2013.

 -------------------------------------------------------------------
 #P Geom=AllCheck Guess=TCheck SCRF=Check GenChk RPBE1PBE/6-31G Freq
 -------------------------------------------------------------------

 Structure from the checkpoint file:  "/tmp/rdj3/g09-18029/Gau-1794.chk"
 ------------------------------------------------------------------
 1H-tetrazole CH2N4 casno=288948 state=1 config=1 method=54 basis=9
 ------------------------------------------------------------------
 Charge =  0 Multiplicity = 1

                         Standard orientation:
 ---------------------------------------------------------------------
 Center     Atomic      Atomic             Coordinates (Angstroms)
 Number     Number       Type             X           Y           Z
 ---------------------------------------------------------------------
      1          6           0        1.079687    0.250177    0.000000
      2          7           0        0.000000    1.065478    0.000000
      3          7           0       -1.141240    0.298880    0.000000
      4          7           0       -0.733750   -0.945835    0.000000
      5          7           0        0.658167   -1.010187    0.000000
      6          1           0        2.104095    0.572351    0.000000
      7          1           0       -0.064461    2.068239    0.000000
 ---------------------------------------------------------------------

 SCF Done:  E(RPBE1PBE) =  -257.845518830     A.U. after    1 cycles

 The electronic state is 1-A'.
 Alpha  occ. eigenvalues --  -14.52424 -14.49918 -14.47958 -14.45151 -10.34511
 Alpha  occ. eigenvalues --   -1.21015  -0.99873  -0.95488  -0.71905  -0.70544
 Alpha  occ. eigenvalues --   -0.63285  -0.52982  -0.52624  -0.39639  -0.35827
 Alpha  occ. eigenvalues --   -0.33878  -0.32371  -0.31206
 Alpha virt. eigenvalues --   -0.03631   0.00326   0.06204   0.10479   0.16511
 Alpha virt. eigenvalues --    0.19053   0.25333   0.31263   0.39153   0.53138
 Alpha virt. eigenvalues --    0.55158   0.62593   0.66246   0.67457   0.68347

 Mulliken charges:
               1
     1  C    0.307899
     2  N   -0.591550
     3  N    0.022358
     4  N   -0.091200
     5  N   -0.304385
     6  H    0.257122
     7  H    0.399756
 Sum of Mulliken charges =   0.00000

 Dipole moment (field-independent basis, Debye):
    X=              2.7654    Y=              5.1898    Z=              0.0000  Tot=              5.8806
 Quadrupole moment (field-independent basis, Debye-Ang):
   XX=            -29.6859   YY=            -27.2704   ZZ=            -28.7119
   XY=              2.0594   XZ=              0.0000   YZ=              0.0000

  Exact polarizability:  37.400   1.036  36.896   0.000   0.000  13.942
 Approx polarizability:  63.864  -0.094  68.755   0.000   0.000  17.483

                      1                      2                      3
                     A"                     A"                     A"
 Frequencies --    681.4796               727.7068               755.4333
 Red. masses --      3.9203                12.3818                 1.1310
 Frc consts  --      1.0727                 3.8632                 0.3803
 IR Inten    --      9.5723                 0.5228               168.3419

                      4                      5                      6
                     A"                     A'                     A'
 Frequencies --    895.5221               898.1775               981.3353
 Red. masses --      1.4041                 7.9140                 5.3913
 Frc consts  --      0.6634                 3.7616                 3.0590
 IR Inten    --     14.3743                 8.1181                16.8785

                      7                      8                      9
                     A'                     A'                     A'
 Frequencies --   1023.5772              1051.0961              1163.2663
 Red. masses --      6.9811                 4.6061                 1.9838
 Frc consts  --      4.3094                 2.9983                 1.5816
 IR Inten    --      5.7000                14.3658                13.9518

                     10                     11                     12
                     A'                     A'                     A'
 Frequencies --   1223.1514              1265.8391              1438.3097
 Red. masses --      4.0751                 3.0052                 3.2604
 Frc consts  --      3.5921                 2.8372                 3.9740
 IR Inten    --     12.3398                 1.1574                 4.2023

                     13                     14                     15
                     A'                     A'                     A'
 Frequencies --   1507.9404              3385.2346              3749.6344
 Red. masses --      2.1889                 1.1031                 1.0848
 Frc consts  --      2.9325                 7.4477                 8.9859
 IR Inten    --     38.6784                 5.8816               113.3063

 - Thermochemistry -
 -------------------
 Temperature   298.150 Kelvin.  Pressure   1.00000 Atm.
 Atom     1 has atomic number  6 and mass  12.00000

 Molecular mass:    70.02795 amu.
 Principal axes and moments of inertia in atomic units:
                           1         2         3
     Eigenvalues --   175.85217 179.46164 355.31382
           X            0.99238   0.12323   0.00000
           Y           -0.12323   0.99238   0.00000
           Z            0.00000   0.00000   1.00000
 This molecule is an asymmetric top.
 Rotational symmetry number  1.
 Rotational temperatures (Kelvin)      0.49254     0.48263     0.24377
 Rotational constants (GHZ):          10.26283    10.05642     5.07929
 Zero-point vibrational energy     124098.8 (Joules/Mol)
                                   29.66033 (Kcal/Mol)
 Vibrational temperatures:    980.50  1047.01  1086.90  1288.45  1292.28
          (Kelvin)           1411.92  1472.70  1512.29  1673.68  1759.84
                             1821.26  2069.40  2169.59  4870.59  5394.88

 Zero-point correction=                           0.047267 (Hartree/Particle)
 Thermal correction to Energy=                    0.050685
 Thermal correction to Enthalpy=                  0.051629
 Thermal correction to Gibbs Free Energy=         0.021161
 Sum of electronic and zero-point Energies=           -257.798252
 Sum of electronic and thermal Energies=              -257.794834
 Sum of electronic and thermal Enthalpies=            -257.793889
 Sum of electronic and thermal Free Energies=         -257.824358

                     E (Thermal)             CV                S
                      KCal/Mol        Cal/Mol-Kelvin    Cal/Mol-Kelvin
 Total                   31.805             11.166             64.127
 Electronic               0.000              0.000              0.000
 Translational            0.889              2.981             38.656
 Rotational               0.889              2.981             23.932
 Vibrational             30.028              5.204              1.539

 Optimization completed.
    -- Stationary point found.
 Normal termination of Gaussian 09 at Mon Dec 16 15:21:10 2013.
