 Gaussian 09, Revision D.01,
 Gaussian 09:  EM64L-G09RevD.01 24-Apr-2013

 -----------------------------
 #PBE1PBE/aug-cc-pVDZ opt freq
 -----------------------------

 -------------------------------------------------------------------
 1H-tetrazole CH2N4 casno=288948 state=1 config=1 method=54 basis=17
 -------------------------------------------------------------------
 Symbolic Z-matrix:
 Charge =  0 Multiplicity = 1

 SCF Done:  E(RPBE1PBE) =  -258.011931862     A.U. after   12 cycles
 SCF Done:  E(RPBE1PBE) =  -258.014829339     A.U. after   11 cycles
 SCF Done:  E(RPBE1PBE) =  -258.014892850     A.U. after   10 cycles
 SCF Done:  E(RPBE1PBE) =  -258.014911350     A.U. after   10 cycles
 SCF Done:  E(RPBE1PBE) =  -258.014916006     A.U. after    9 cycles
 Optimization completed.
    -- Stationary point found.
 Normal termination of Gaussian 09 at Mon Dec 16 15:17:02 2013.

 ----------------------------------------------------------------------
 #P Geom=AllCheck Guess=TCheck SCRF=Check GenChk RPBE1PBE/Aug-CC-pVDZ F
 req
 ----------------------------------------------------------------------

 Structure from the checkpoint file:  "/tmp/rdj3/g09-18029/Gau-27340.chk"
 -------------------------------------------------------------------
 1H-tetrazole CH2N4 casno=288948 state=1 config=1 method=54 basis=17
 -------------------------------------------------------------------
 Charge =  0 Multiplicity = 1

                         Standard orientation:
 ---------------------------------------------------------------------
 Center     Atomic      Atomic             Coordinates (Angstroms)
 Number     Number       Type             X           Y           Z
 ---------------------------------------------------------------------
      1          6           0        1.064718    0.232848    0.000000
      2          7           0        0.000000    1.049485    0.000000
      3          7           0       -1.112956    0.305473    0.000000
      4          7           0       -0.720481   -0.920813    0.000000
      5          7           0        0.629347   -1.007437    0.000000
      6          1           0        2.098063    0.558147    0.000000
      7          1           0       -0.057745    2.057811    0.000000
 ---------------------------------------------------------------------

 SCF Done:  E(RPBE1PBE) =  -258.014916006     A.U. after    1 cycles

 The electronic state is 1-A'.
 Alpha  occ. eigenvalues --  -14.51719 -14.48165 -14.46540 -14.43709 -10.33138
 Alpha  occ. eigenvalues --   -1.19223  -0.98885  -0.93194  -0.71146  -0.69775
 Alpha  occ. eigenvalues --   -0.62381  -0.52698  -0.52257  -0.40611  -0.35598
 Alpha  occ. eigenvalues --   -0.33090  -0.32956  -0.31473
 Alpha virt. eigenvalues --   -0.02601  -0.01957   0.00655   0.01252   0.04334
 Alpha virt. eigenvalues --    0.05191   0.06458   0.07903   0.09195   0.09890
 Alpha virt. eigenvalues --    0.10997   0.11904   0.13291   0.14452   0.15502

 Mulliken charges:
               1
     1  C    0.900749
     2  N   -0.013658
     3  N   -0.115132
     4  N   -0.261106
     5  N   -0.317268
     6  H   -0.150446
     7  H   -0.043138
 Sum of Mulliken charges =   0.00000

 Dipole moment (field-independent basis, Debye):
    X=              2.5339    Y=              4.7619    Z=              0.0000  Tot=              5.3941
 Quadrupole moment (field-independent basis, Debye-Ang):
   XX=            -29.0772   YY=            -26.5565   ZZ=            -28.8092
   XY=              1.8663   XZ=              0.0000   YZ=              0.0000

  Exact polarizability:  45.267   0.524  44.675   0.000   0.000  26.103
 Approx polarizability:  71.085   0.366  74.159   0.000   0.000  37.428

                      1                      2                      3
                     A"                     A"                     A"
 Frequencies --    611.8989               699.8691               752.1574
 Red. masses --      1.7698                 1.8997                 8.5049
 Frc consts  --      0.3904                 0.5482                 2.8349
 IR Inten    --     78.0995                 8.6578                 7.5268

                      4                      5                      6
                     A"                     A'                     A'
 Frequencies --    862.5655               989.1304              1024.1649
 Red. masses --      1.3919                 3.8251                 5.4662
 Frc consts  --      0.6101                 2.2050                 3.3781
 IR Inten    --     18.8151                 2.6026                 1.9069

                      7                      8                      9
                     A'                     A'                     A'
 Frequencies --   1097.8667              1108.3240              1157.4763
 Red. masses --      2.6369                 4.4631                 2.2003
 Frc consts  --      1.8726                 3.2301                 1.7369
 IR Inten    --     30.2299                20.0165                 8.6652

                     10                     11                     12
                     A'                     A'                     A'
 Frequencies --   1286.8458              1335.6207              1487.5885
 Red. masses --      2.7325                10.5795                 3.6059
 Frc consts  --      2.6661                11.1194                 4.7014
 IR Inten    --      1.1145                12.9956                 8.4598

                     13                     14                     15
                     A'                     A'                     A'
 Frequencies --   1529.5715              3310.0939              3681.4405
 Red. masses --      3.6362                 1.1023                 1.0845
 Frc consts  --      5.0123                 7.1162                 8.6601
 IR Inten    --     15.8033                 2.2085                98.0347

 - Thermochemistry -
 -------------------
 Temperature   298.150 Kelvin.  Pressure   1.00000 Atm.
 Atom     1 has atomic number  6 and mass  12.00000

 Molecular mass:    70.02795 amu.
 Principal axes and moments of inertia in atomic units:
                           1         2         3
     Eigenvalues --   170.15170 173.01350 343.16520
           X            0.78791   0.61579   0.00000
           Y           -0.61579   0.78791   0.00000
           Z            0.00000   0.00000   1.00000
 This molecule is an asymmetric top.
 Rotational symmetry number  1.
 Rotational temperatures (Kelvin)      0.50904     0.50062     0.25240
 Rotational constants (GHZ):          10.60666    10.43122     5.25910
 Zero-point vibrational energy     125216.8 (Joules/Mol)
                                   29.92753 (Kcal/Mol)
 Warning -- explicit consideration of   1 degrees of freedom as
           vibrations may cause significant error
 Vibrational temperatures:    880.38  1006.95  1082.19  1241.04  1423.14
          (Kelvin)           1473.54  1579.58  1594.63  1665.35  1851.48
                             1921.66  2140.31  2200.71  4762.48  5296.77

 Zero-point correction=                           0.047693 (Hartree/Particle)
 Thermal correction to Energy=                    0.051119
 Thermal correction to Enthalpy=                  0.052063
 Thermal correction to Gibbs Free Energy=         0.021625
 Sum of electronic and zero-point Energies=           -257.967223
 Sum of electronic and thermal Energies=              -257.963797
 Sum of electronic and thermal Enthalpies=            -257.962853
 Sum of electronic and thermal Free Energies=         -257.993291

                     E (Thermal)             CV                S
                      KCal/Mol        Cal/Mol-Kelvin    Cal/Mol-Kelvin
 Total                   32.078             11.045             64.062
 Electronic               0.000              0.000              0.000
 Translational            0.889              2.981             38.656
 Rotational               0.889              2.981             23.828
 Vibrational             30.300              5.084              1.578
 Vibration     1          0.971              1.007              0.430

 Optimization completed.
    -- Stationary point found.
 Normal termination of Gaussian 09 at Mon Dec 16 15:17:23 2013.
