 Gaussian 09, Revision D.01,
 Gaussian 09:  EM64L-G09RevD.01 24-Apr-2013

 -------------------------
 #PBE1PBE/cc-pVDZ opt freq
 -------------------------

 ------------------------------------------------------------------
 1H-tetrazole CH2N4 casno=288948 state=1 config=1 method=54 basis=5
 ------------------------------------------------------------------
 Symbolic Z-matrix:
 Charge =  0 Multiplicity = 1

 SCF Done:  E(RPBE1PBE) =  -257.991867491     A.U. after   14 cycles
 SCF Done:  E(RPBE1PBE) =  -257.994640721     A.U. after   12 cycles
 SCF Done:  E(RPBE1PBE) =  -257.994695361     A.U. after   10 cycles
 SCF Done:  E(RPBE1PBE) =  -257.994712506     A.U. after    9 cycles
 SCF Done:  E(RPBE1PBE) =  -257.994715087     A.U. after    9 cycles
 Optimization completed.
    -- Stationary point found.
 Normal termination of Gaussian 09 at Mon Dec 16 15:20:07 2013.

 ---------------------------------------------------------------------
 #P Geom=AllCheck Guess=TCheck SCRF=Check GenChk RPBE1PBE/CC-pVDZ Freq
 ---------------------------------------------------------------------

 Structure from the checkpoint file:  "/tmp/rdj3/g09-18029/Gau-32242.chk"
 ------------------------------------------------------------------
 1H-tetrazole CH2N4 casno=288948 state=1 config=1 method=54 basis=5
 ------------------------------------------------------------------
 Charge =  0 Multiplicity = 1

                         Standard orientation:
 ---------------------------------------------------------------------
 Center     Atomic      Atomic             Coordinates (Angstroms)
 Number     Number       Type             X           Y           Z
 ---------------------------------------------------------------------
      1          6           0        1.063985    0.230565    0.000000
      2          7           0        0.000000    1.049581    0.000000
      3          7           0       -1.111900    0.305154    0.000000
      4          7           0       -0.720454   -0.918456    0.000000
      5          7           0        0.628390   -1.007855    0.000000
      6          1           0        2.099552    0.557138    0.000000
      7          1           0       -0.055708    2.060508    0.000000
 ---------------------------------------------------------------------

 SCF Done:  E(RPBE1PBE) =  -257.994715087     A.U. after    1 cycles

 The electronic state is 1-A'.
 Alpha  occ. eigenvalues --  -14.50789 -14.46694 -14.44894 -14.42264 -10.32398
 Alpha  occ. eigenvalues --   -1.18431  -0.97995  -0.92336  -0.70219  -0.68864
 Alpha  occ. eigenvalues --   -0.61514  -0.51887  -0.51404  -0.39485  -0.34683
 Alpha  occ. eigenvalues --   -0.32237  -0.31705  -0.30159
 Alpha virt. eigenvalues --   -0.01176   0.02619   0.04558   0.09028   0.19422
 Alpha virt. eigenvalues --    0.20375   0.27382   0.30591   0.39748   0.45438
 Alpha virt. eigenvalues --    0.47327   0.55075   0.58215   0.59708   0.67088

 Mulliken charges:
               1
     1  C    0.214350
     2  N   -0.062561
     3  N   -0.070723
     4  N   -0.088826
     5  N   -0.200567
     6  H    0.073803
     7  H    0.134524
 Sum of Mulliken charges =   0.00000

 Dipole moment (field-independent basis, Debye):
    X=              2.4253    Y=              4.6880    Z=              0.0000  Tot=              5.2782
 Quadrupole moment (field-independent basis, Debye-Ang):
   XX=            -28.5071   YY=            -25.9146   ZZ=            -27.9741
   XY=              1.7320   XZ=              0.0000   YZ=              0.0000

  Exact polarizability:  37.531   1.079  36.598   0.000   0.000  16.131
 Approx polarizability:  62.874   0.581  65.882   0.000   0.000  24.020

                      1                      2                      3
                     A"                     A"                     A"
 Frequencies --    603.1770               702.1506               755.6824
 Red. masses --      1.7485                 1.9816                 7.8085
 Frc consts  --      0.3748                 0.5756                 2.6272
 IR Inten    --     77.4040                 7.3302                 8.6937

                      4                      5                      6
                     A"                     A'                     A'
 Frequencies --    863.4233               990.7014              1026.5628
 Red. masses --      1.3845                 3.5699                 5.0246
 Frc consts  --      0.6081                 2.0644                 3.1198
 IR Inten    --     17.5631                 3.3330                 2.4175

                      7                      8                      9
                     A'                     A'                     A'
 Frequencies --   1093.1818              1109.5618              1158.3016
 Red. masses --      2.5620                 4.2626                 2.3413
 Frc consts  --      1.8039                 3.0919                 1.8508
 IR Inten    --     33.8724                17.6817                10.3649

                     10                     11                     12
                     A'                     A'                     A'
 Frequencies --   1285.5912              1345.3913              1489.8787
 Red. masses --      2.7411                10.0852                 3.5367
 Frc consts  --      2.6692                10.7555                 4.6254
 IR Inten    --      1.4100                16.0847                 7.9996

                     13                     14                     15
                     A'                     A'                     A'
 Frequencies --   1534.8909              3313.8836              3672.4074
 Red. masses --      4.2182                 1.1022                 1.0849
 Frc consts  --      5.8550                 7.1318                 8.6208
 IR Inten    --     14.0309                 2.4802               102.8054

 - Thermochemistry -
 -------------------
 Temperature   298.150 Kelvin.  Pressure   1.00000 Atm.
 Atom     1 has atomic number  6 and mass  12.00000

 Molecular mass:    70.02795 amu.
 Principal axes and moments of inertia in atomic units:
                           1         2         3
     Eigenvalues --   169.83533 172.92019 342.75552
           X            0.77806   0.62820   0.00000
           Y           -0.62820   0.77806   0.00000
           Z            0.00000   0.00000   1.00000
 This molecule is an asymmetric top.
 Rotational symmetry number  1.
 Rotational temperatures (Kelvin)      0.50999     0.50089     0.25270
 Rotational constants (GHZ):          10.62642    10.43684     5.26539
 Zero-point vibrational energy     125277.6 (Joules/Mol)
                                   29.94207 (Kcal/Mol)
 Warning -- explicit consideration of   1 degrees of freedom as
           vibrations may cause significant error
 Vibrational temperatures:    867.84  1010.24  1087.26  1242.27  1425.40
          (Kelvin)           1476.99  1572.84  1596.41  1666.54  1849.68
                             1935.72  2143.60  2208.36  4767.93  5283.77

 Zero-point correction=                           0.047716 (Hartree/Particle)
 Thermal correction to Energy=                    0.051144
 Thermal correction to Enthalpy=                  0.052088
 Thermal correction to Gibbs Free Energy=         0.021649
 Sum of electronic and zero-point Energies=           -257.946999
 Sum of electronic and thermal Energies=              -257.943571
 Sum of electronic and thermal Enthalpies=            -257.942627
 Sum of electronic and thermal Free Energies=         -257.973066

                     E (Thermal)             CV                S
                      KCal/Mol        Cal/Mol-Kelvin    Cal/Mol-Kelvin
 Total                   32.093             11.045             64.065
 Electronic               0.000              0.000              0.000
 Translational            0.889              2.981             38.656
 Rotational               0.889              2.981             23.824
 Vibrational             30.316              5.083              1.584
 Vibration     1          0.962              1.025              0.444

 Optimization completed.
    -- Stationary point found.
 Normal termination of Gaussian 09 at Mon Dec 16 15:20:14 2013.
