 Gaussian 09, Revision D.01,
 Gaussian 09:  EM64L-G09RevD.01 24-Apr-2013

 ---------------------------------------
 #PBE1PBE/6-31G(2df,p) opt=z-matrix freq
 ---------------------------------------

 -------------------------------------------------------------------
 1H-tetrazole CH2N4 casno=288948 state=1 config=1 method=54 basis=19
 -------------------------------------------------------------------
 Symbolic Z-matrix:
 Charge =  0 Multiplicity = 1

 SCF Done:  E(RPBE1PBE) =  -257.987845774     A.U. after   14 cycles
 SCF Done:  E(RPBE1PBE) =  -257.989914676     A.U. after   11 cycles
 SCF Done:  E(RPBE1PBE) =  -257.989949775     A.U. after   10 cycles
 SCF Done:  E(RPBE1PBE) =  -257.989969002     A.U. after   10 cycles
 SCF Done:  E(RPBE1PBE) =  -257.989976856     A.U. after    9 cycles
 SCF Done:  E(RPBE1PBE) =  -257.989506103     A.U. after   11 cycles
 SCF Done:  E(RPBE1PBE) =  -257.989985175     A.U. after    9 cycles
 SCF Done:  E(RPBE1PBE) =  -257.989926897     A.U. after   10 cycles
 SCF Done:  E(RPBE1PBE) =  -257.989986705     A.U. after    8 cycles
 SCF Done:  E(RPBE1PBE) =  -257.989987757     A.U. after    7 cycles
 SCF Done:  E(RPBE1PBE) =  -257.989891508     A.U. after   11 cycles
 SCF Done:  E(RPBE1PBE) =  -257.989987863     A.U. after    7 cycles
 SCF Done:  E(RPBE1PBE) =  -257.989988302     A.U. after    7 cycles
 SCF Done:  E(RPBE1PBE) =  -257.989886237     A.U. after   11 cycles
 SCF Done:  E(RPBE1PBE) =  -257.989988384     A.U. after    7 cycles
 SCF Done:  E(RPBE1PBE) =  -257.989988510     A.U. after    7 cycles
 Optimization completed.
    -- Stationary point found.
 Normal termination of Gaussian 09 at Mon Nov 25 19:11:47 2013.

 ----------------------------------------------------------------------
 #P Geom=AllCheck Guess=TCheck SCRF=Check GenChk RPBE1PBE/6-31G(2df,p)
 Freq
 ----------------------------------------------------------------------

 Structure from the checkpoint file:  "/tmp/rdj3/g09-23219/Gau-4791.chk"
 -------------------------------------------------------------------
 1H-tetrazole CH2N4 casno=288948 state=1 config=1 method=54 basis=19
 -------------------------------------------------------------------
 Charge =  0 Multiplicity = 1

                         Standard orientation:
 ---------------------------------------------------------------------
 Center     Atomic      Atomic             Coordinates (Angstroms)
 Number     Number       Type             X           Y           Z
 ---------------------------------------------------------------------
      1          6           0        1.061589    0.232619    0.000000
      2          7           0        0.000000    1.047496    0.000000
      3          7           0       -1.110690    0.303373    0.000000
      4          7           0       -0.718447   -0.918885    0.000000
      5          7           0        0.629366   -1.004400    0.000000
      6          1           0        2.089281    0.559244    0.000000
      7          1           0       -0.060424    2.051950    0.000000
 ---------------------------------------------------------------------

 SCF Done:  E(RPBE1PBE) =  -257.989988510     A.U. after    1 cycles

 The electronic state is 1-A'.
 Alpha  occ. eigenvalues --  -14.50761 -14.46972 -14.45291 -14.42433 -10.32139
 Alpha  occ. eigenvalues --   -1.18032  -0.97701  -0.91994  -0.70112  -0.68652
 Alpha  occ. eigenvalues --   -0.61465  -0.51847  -0.51317  -0.39479  -0.34578
 Alpha  occ. eigenvalues --   -0.32081  -0.31666  -0.30176
 Alpha virt. eigenvalues --   -0.00957   0.02748   0.07154   0.12294   0.19788
 Alpha virt. eigenvalues --    0.21095   0.28109   0.30247   0.39942   0.44612
 Alpha virt. eigenvalues --    0.47753   0.49281   0.52548   0.56020   0.57673

 Mulliken charges:
               1
     1  C    0.091378
     2  N   -0.221328
     3  N   -0.072650
     4  N   -0.085467
     5  N   -0.223687
     6  H    0.194168
     7  H    0.317587
 Sum of Mulliken charges =   0.00000

 Dipole moment (field-independent basis, Debye):
    X=              2.4436    Y=              4.6561    Z=              0.0000  Tot=              5.2583
 Quadrupole moment (field-independent basis, Debye-Ang):
   XX=            -28.2769   YY=            -25.6529   ZZ=            -27.9787
   XY=              1.7485   XZ=              0.0000   YZ=              0.0000

  Exact polarizability:  38.574   0.924  37.785   0.000   0.000  18.434
 Approx polarizability:  64.531   0.410  67.619   0.000   0.000  28.619

                      1                      2                      3
                     A"                     A"                     A"
 Frequencies --    607.5452               703.4616               756.7196
 Red. masses --      1.7127                 2.0149                 8.2495
 Frc consts  --      0.3725                 0.5875                 2.7832
 IR Inten    --     78.6712                 7.2737                 8.1945

                      4                      5                      6
                     A"                     A'                     A'
 Frequencies --    873.8762               995.3168              1029.3570
 Red. masses --      1.3766                 4.1365                 5.1712
 Frc consts  --      0.6194                 2.4144                 3.2283
 IR Inten    --     13.7350                 3.1674                 2.4231

                      7                      8                      9
                     A'                     A'                     A'
 Frequencies --   1101.1505              1112.0734              1166.4959
 Red. masses --      2.8526                 4.8405                 2.0664
 Frc consts  --      2.0379                 3.5270                 1.6567
 IR Inten    --     29.8561                19.3967                10.5040

                     10                     11                     12
                     A'                     A'                     A'
 Frequencies --   1291.3908              1341.1145              1488.3129
 Red. masses --      2.6217                10.4695                 3.4197
 Frc consts  --      2.5760                11.0945                 4.4631
 IR Inten    --      1.5064                14.5240                 8.4569

                     13                     14                     15
                     A'                     A'                     A'
 Frequencies --   1533.8039              3310.4164              3703.6375
 Red. masses --      3.7316                 1.1013                 1.0836
 Frc consts  --      5.1722                 7.1111                 8.7577
 IR Inten    --     16.2161                 1.5390                97.5240

 - Thermochemistry -
 -------------------
 Temperature   298.150 Kelvin.  Pressure   1.00000 Atm.
 Atom     1 has atomic number  6 and mass  12.00000

 Molecular mass:    70.02795 amu.
 Principal axes and moments of inertia in atomic units:
                           1         2         3
     Eigenvalues --   169.33663 172.17622 341.51285
           X            0.79186   0.61071   0.00000
           Y           -0.61071   0.79186   0.00000
           Z            0.00000   0.00000   1.00000
 This molecule is an asymmetric top.
 Rotational symmetry number  1.
 Rotational temperatures (Kelvin)      0.51149     0.50305     0.25362
 Rotational constants (GHZ):          10.65771    10.48194     5.28455
 Zero-point vibrational energy     125695.7 (Joules/Mol)
                                   30.04198 (Kcal/Mol)
 Warning -- explicit consideration of   1 degrees of freedom as
           vibrations may cause significant error
 Vibrational temperatures:    874.12  1012.12  1088.75  1257.31  1432.04
          (Kelvin)           1481.01  1584.31  1600.02  1678.33  1858.02
                             1929.56  2141.35  2206.80  4762.94  5328.70

 Zero-point correction=                           0.047875 (Hartree/Particle)
 Thermal correction to Energy=                    0.051295
 Thermal correction to Enthalpy=                  0.052239
 Thermal correction to Gibbs Free Energy=         0.021816
 Sum of electronic and zero-point Energies=           -257.942114
 Sum of electronic and thermal Energies=              -257.938694
 Sum of electronic and thermal Enthalpies=            -257.937750
 Sum of electronic and thermal Free Energies=         -257.968172

                     E (Thermal)             CV                S
                      KCal/Mol        Cal/Mol-Kelvin    Cal/Mol-Kelvin
 Total                   32.188             10.993             64.030
 Electronic               0.000              0.000              0.000
 Translational            0.889              2.981             38.656
 Rotational               0.889              2.981             23.814
 Vibrational             30.410              5.031              1.560
 Vibration     1          0.966              1.016              0.437

 Normal termination of Gaussian 09 at Mon Nov 25 19:12:30 2013.
