 Gaussian 09, Revision D.01,
 Gaussian 09:  EM64L-G09RevD.01 24-Apr-2013

 --------------------------
 #PBE1PBE/6-31+G** opt freq
 --------------------------

 ------------------------------------------------------------------
 1H-tetrazole CH2N4 casno=288948 state=1 config=1 method=54 basis=4
 ------------------------------------------------------------------
 Symbolic Z-matrix:
 Charge =  0 Multiplicity = 1

 SCF Done:  E(RPBE1PBE) =  -257.983356691     A.U. after   12 cycles
 SCF Done:  E(RPBE1PBE) =  -257.985894534     A.U. after   11 cycles
 SCF Done:  E(RPBE1PBE) =  -257.985949629     A.U. after   10 cycles
 SCF Done:  E(RPBE1PBE) =  -257.985967444     A.U. after   10 cycles
 SCF Done:  E(RPBE1PBE) =  -257.985972126     A.U. after    9 cycles
 Optimization completed.
    -- Stationary point found.
 Normal termination of Gaussian 09 at Mon Dec 16 15:19:43 2013.

 ----------------------------------------------------------------------
 #P Geom=AllCheck Guess=TCheck SCRF=Check GenChk RPBE1PBE/6-31+G(d,p) F
 req
 ----------------------------------------------------------------------

 Structure from the checkpoint file:  "/tmp/rdj3/g09-18029/Gau-31656.chk"
 ------------------------------------------------------------------
 1H-tetrazole CH2N4 casno=288948 state=1 config=1 method=54 basis=4
 ------------------------------------------------------------------
 Charge =  0 Multiplicity = 1

                         Standard orientation:
 ---------------------------------------------------------------------
 Center     Atomic      Atomic             Coordinates (Angstroms)
 Number     Number       Type             X           Y           Z
 ---------------------------------------------------------------------
      1          6           0        1.064564    0.233525    0.000000
      2          7           0        0.000000    1.049373    0.000000
      3          7           0       -1.112824    0.303061    0.000000
      4          7           0       -0.719417   -0.920840    0.000000
      5          7           0        0.629115   -1.004901    0.000000
      6          1           0        2.094538    0.555801    0.000000
      7          1           0       -0.060044    2.056198    0.000000
 ---------------------------------------------------------------------

 SCF Done:  E(RPBE1PBE) =  -257.985972126     A.U. after    1 cycles

 The electronic state is 1-A'.
 Alpha  occ. eigenvalues --  -14.52707 -14.48990 -14.47217 -14.44399 -10.33716
 Alpha  occ. eigenvalues --   -1.19626  -0.99170  -0.93522  -0.71459  -0.70003
 Alpha  occ. eigenvalues --   -0.62713  -0.52946  -0.52606  -0.40750  -0.35843
 Alpha  occ. eigenvalues --   -0.33363  -0.33032  -0.31481
 Alpha virt. eigenvalues --   -0.02678  -0.00678   0.00823   0.03040   0.05010
 Alpha virt. eigenvalues --    0.06055   0.08063   0.09882   0.11881   0.13646
 Alpha virt. eigenvalues --    0.15083   0.16089   0.17555   0.18942   0.19181

 Mulliken charges:
               1
     1  C    0.010893
     2  N   -0.296664
     3  N   -0.012468
     4  N   -0.011981
     5  N   -0.249442
     6  H    0.205430
     7  H    0.354232
 Sum of Mulliken charges =   0.00000

 Dipole moment (field-independent basis, Debye):
    X=              2.6379    Y=              4.9259    Z=              0.0000  Tot=              5.5878
 Quadrupole moment (field-independent basis, Debye-Ang):
   XX=            -29.3188   YY=            -26.7217   ZZ=            -28.8255
   XY=              1.9248   XZ=              0.0000   YZ=              0.0000

  Exact polarizability:  43.115   0.390  42.681   0.000   0.000  23.686
 Approx polarizability:  67.018  -0.029  70.639   0.000   0.000  32.952

                      1                      2                      3
                     A"                     A"                     A"
 Frequencies --    603.4259               698.3932               747.3392
 Red. masses --      1.8827                 1.8642                 8.1700
 Frc consts  --      0.4039                 0.5357                 2.6885
 IR Inten    --     84.8742                12.6684                 8.7452

                      4                      5                      6
                     A"                     A'                     A'
 Frequencies --    860.0829               992.5404              1026.3587
 Red. masses --      1.3555                 4.3097                 5.5442
 Frc consts  --      0.5908                 2.5015                 3.4410
 IR Inten    --     22.6315                 3.0001                 1.6581

                      7                      8                      9
                     A'                     A'                     A'
 Frequencies --   1097.8575              1113.5565              1164.4593
 Red. masses --      2.9346                 4.9391                 1.9647
 Frc consts  --      2.0840                 3.6085                 1.5696
 IR Inten    --     27.7421                24.1427                10.4352

                     10                     11                     12
                     A'                     A'                     A'
 Frequencies --   1294.8695              1341.5811              1492.4144
 Red. masses --      2.5894                10.2859                 3.4749
 Frc consts  --      2.5580                10.9076                 4.5601
 IR Inten    --      1.2966                18.1758                 9.5142

                     13                     14                     15
                     A'                     A'                     A'
 Frequencies --   1538.8224              3326.5299              3704.6547
 Red. masses --      3.5901                 1.1017                 1.0843
 Frc consts  --      5.0088                 7.1828                 8.7679
 IR Inten    --     17.4136                 2.9274               108.8478

 - Thermochemistry -
 -------------------
 Temperature   298.150 Kelvin.  Pressure   1.00000 Atm.
 Atom     1 has atomic number  6 and mass  12.00000

 Molecular mass:    70.02795 amu.
 Principal axes and moments of inertia in atomic units:
                           1         2         3
     Eigenvalues --   170.02257 172.61499 342.63756
           X            0.81803   0.57518   0.00000
           Y           -0.57518   0.81803   0.00000
           Z            0.00000   0.00000   1.00000
 This molecule is an asymmetric top.
 Rotational symmetry number  1.
 Rotational temperatures (Kelvin)      0.50943     0.50177     0.25279
 Rotational constants (GHZ):          10.61472    10.45530     5.26720
 Zero-point vibrational energy     125625.2 (Joules/Mol)
                                   30.02513 (Kcal/Mol)
 Warning -- explicit consideration of   1 degrees of freedom as
           vibrations may cause significant error
 Vibrational temperatures:    868.19  1004.83  1075.25  1237.47  1428.04
          (Kelvin)           1476.70  1579.57  1602.16  1675.40  1863.03
                             1930.23  2147.25  2214.02  4786.13  5330.17

 Zero-point correction=                           0.047848 (Hartree/Particle)
 Thermal correction to Energy=                    0.051279
 Thermal correction to Enthalpy=                  0.052223
 Thermal correction to Gibbs Free Energy=         0.021780
 Sum of electronic and zero-point Energies=           -257.938124
 Sum of electronic and thermal Energies=              -257.934693
 Sum of electronic and thermal Enthalpies=            -257.933749
 Sum of electronic and thermal Free Energies=         -257.964192

                     E (Thermal)             CV                S
                      KCal/Mol        Cal/Mol-Kelvin    Cal/Mol-Kelvin
 Total                   32.178             11.053             64.073
 Electronic               0.000              0.000              0.000
 Translational            0.889              2.981             38.656
 Rotational               0.889              2.981             23.823
 Vibrational             30.401              5.091              1.593
 Vibration     1          0.962              1.025              0.444

 Optimization completed.
    -- Stationary point found.
 Normal termination of Gaussian 09 at Mon Dec 16 15:19:53 2013.
