 Gaussian 09, Revision D.01,
 Gaussian 09:  EM64L-G09RevD.01 24-Apr-2013

 ----------------------
 #B1B95/3-21G* opt freq
 ----------------------

 ------------------------------------------------------------------
 1H-tetrazole CH2N4 casno=288948 state=1 config=1 method=55 basis=2
 ------------------------------------------------------------------
 Symbolic Z-matrix:
 Charge =  0 Multiplicity = 1

 SCF Done:  E(RB1B95) =  -256.674427278     A.U. after   15 cycles
 SCF Done:  E(RB1B95) =  -256.689835780     A.U. after   14 cycles
 SCF Done:  E(RB1B95) =  -256.690827253     A.U. after   14 cycles
 SCF Done:  E(RB1B95) =  -256.691098518     A.U. after   13 cycles
 SCF Done:  E(RB1B95) =  -256.691168577     A.U. after   10 cycles
 SCF Done:  E(RB1B95) =  -256.691177629     A.U. after    9 cycles
 SCF Done:  E(RB1B95) =  -256.691181216     A.U. after    9 cycles
 SCF Done:  E(RB1B95) =  -256.691182915     A.U. after    9 cycles
 Optimization completed.
    -- Stationary point found.
 Normal termination of Gaussian 09 at Mon Dec 16 15:34:42 2013.

 ------------------------------------------------------------------
 #N Geom=AllCheck Guess=TCheck SCRF=Check GenChk RB1B95/3-21G* Freq
 ------------------------------------------------------------------

 Structure from the checkpoint file:  "/tmp/rdj3/g09-18029/Gau-4331.chk"
 ------------------------------------------------------------------
 1H-tetrazole CH2N4 casno=288948 state=1 config=1 method=55 basis=2
 ------------------------------------------------------------------
 Charge =  0 Multiplicity = 1

                         Standard orientation:
 ---------------------------------------------------------------------
 Center     Atomic      Atomic             Coordinates (Angstroms)
 Number     Number       Type             X           Y           Z
 ---------------------------------------------------------------------
      1          6           0        1.074551    0.257513    0.000000
      2          7           0        0.000000    1.077680    0.000000
      3          7           0       -1.162144    0.289326    0.000000
      4          7           0       -0.738256   -0.961722    0.000000
      5          7           0        0.690495   -1.008595    0.000000
      6          1           0        2.092085    0.593723    0.000000
      7          1           0       -0.070058    2.084384    0.000000
 ---------------------------------------------------------------------

 SCF Done:  E(RB1B95) =  -256.691182915     A.U. after    1 cycles

 The electronic state is 1-A'.
 Alpha  occ. eigenvalues --  -14.49535 -14.47020 -14.45122 -14.41823 -10.33075
 Alpha  occ. eigenvalues --   -1.18145  -0.97642  -0.94293  -0.70124  -0.69163
 Alpha  occ. eigenvalues --   -0.62439  -0.51429  -0.51087  -0.38803  -0.34372
 Alpha  occ. eigenvalues --   -0.32940  -0.31595  -0.30618
 Alpha virt. eigenvalues --   -0.01866   0.02291   0.09675   0.11749   0.18400
 Alpha virt. eigenvalues --    0.21511   0.27633   0.36918   0.41068   0.68951
 Alpha virt. eigenvalues --    0.70968   0.81960   0.84603   0.93893   1.03388

 Mulliken charges:
               1
     1  C    0.328886
     2  N   -0.560213
     3  N   -0.026941
     4  N   -0.079901
     5  N   -0.342065
     6  H    0.294061
     7  H    0.386174
 Sum of Mulliken charges =   0.00000

 Dipole moment (field-independent basis, Debye):
    X=              2.5035    Y=              4.9559    Z=              0.0000  Tot=              5.5523
 Quadrupole moment (field-independent basis, Debye-Ang):
   XX=            -28.9460   YY=            -26.3768   ZZ=            -28.5443
   XY=              1.9874   XZ=              0.0000   YZ=              0.0000

  Exact polarizability:  34.532   1.234  34.119   0.000   0.000  11.299
 Approx polarizability:  61.264  -0.479  67.958   0.000   0.000  13.857

                      1                      2                      3
                     A"                     A"                     A"
 Frequencies --    654.6974               693.2205               701.0653
 Red. masses --      4.3771                 5.1450                 1.2626
 Frc consts  --      1.1054                 1.4567                 0.3656
 IR Inten    --     42.8157                 2.6559               123.1446

                      4                      5                      6
                     A'                     A'                     A"
 Frequencies --    808.0559               890.8060               931.8939
 Red. masses --      9.8727                 6.1868                 1.3889
 Frc consts  --      3.7981                 2.8926                 0.7107
 IR Inten    --      9.2493                15.6137                15.9389

                      7                      8                      9
                     A'                     A'                     A'
 Frequencies --    992.1389              1018.2217              1101.4070
 Red. masses --      5.0086                 6.3117                 5.5963
 Frc consts  --      2.9047                 3.8555                 3.9999
 IR Inten    --      8.7552                 8.9669                 4.1272

                     10                     11                     12
                     A'                     A'                     A'
 Frequencies --   1162.9205              1231.6073              1385.1657
 Red. masses --      2.0753                 2.2327                 2.8832
 Frc consts  --      1.6536                 1.9953                 3.2594
 IR Inten    --     13.4696                 6.4175                 5.6148

                     13                     14                     15
                     A'                     A'                     A'
 Frequencies --   1455.5484              3355.7366              3641.8320
 Red. masses --      2.2691                 1.1003                 1.0847
 Frc consts  --      2.8324                 7.3003                 8.4760
 IR Inten    --     42.1655                 3.3510               118.1382

 - Thermochemistry -
 -------------------
 Temperature   298.150 Kelvin.  Pressure   1.00000 Atm.
 Atom     1 has atomic number  6 and mass  12.00000

 Molecular mass:    70.02795 amu.
 Principal axes and moments of inertia in atomic units:
                           1         2         3
     Eigenvalues --   178.69529 183.75083 362.44612
           X            0.99270   0.12062   0.00000
           Y           -0.12062   0.99270   0.00000
           Z            0.00000   0.00000   1.00000
 This molecule is an asymmetric top.
 Rotational symmetry number  1.
 Rotational temperatures (Kelvin)      0.48470     0.47137     0.23897
 Rotational constants (GHZ):          10.09955     9.82168     4.97934
 Zero-point vibrational energy     119772.0 (Joules/Mol)
                                   28.62620 (Kcal/Mol)
 Vibrational temperatures:    941.96   997.39  1008.68  1162.61  1281.67
          (Kelvin)           1340.79  1427.46  1464.99  1584.68  1673.18
                             1772.01  1992.94  2094.21  4828.15  5239.78

 Zero-point correction=                           0.045619 (Hartree/Particle)
 Thermal correction to Energy=                    0.049136
 Thermal correction to Enthalpy=                  0.050080
 Thermal correction to Gibbs Free Energy=         0.019452
 Sum of electronic and zero-point Energies=           -256.645564
 Sum of electronic and thermal Energies=              -256.642047
 Sum of electronic and thermal Enthalpies=            -256.641103
 Sum of electronic and thermal Free Energies=         -256.671731

                     E (Thermal)             CV                S
                      KCal/Mol        Cal/Mol-Kelvin    Cal/Mol-Kelvin
 Total                   30.833             11.794             64.462
 Electronic               0.000              0.000              0.000
 Translational            0.889              2.981             38.656
 Rotational               0.889              2.981             23.991
 Vibrational             29.056              5.833              1.815

 Optimization completed.
    -- Stationary point found.
 Normal termination of Gaussian 09 at Mon Dec 16 15:34:46 2013.
