 Gaussian 09, Revision D.01,
 Gaussian 09:  EM64L-G09RevD.01 24-Apr-2013

 -----------------------
 #B1B95/cc-pVTZ opt freq
 -----------------------

 ------------------------------------------------------------------
 1H-tetrazole CH2N4 casno=288948 state=1 config=1 method=55 basis=6
 ------------------------------------------------------------------
 Symbolic Z-matrix:
 Charge =  0 Multiplicity = 1

 SCF Done:  E(RB1B95) =  -258.252378985     A.U. after   14 cycles
 SCF Done:  E(RB1B95) =  -258.253485800     A.U. after   11 cycles
 SCF Done:  E(RB1B95) =  -258.253526048     A.U. after    9 cycles
 SCF Done:  E(RB1B95) =  -258.253534399     A.U. after    9 cycles
 SCF Done:  E(RB1B95) =  -258.253536491     A.U. after    8 cycles
 Optimization completed.
    -- Stationary point found.
 Normal termination of Gaussian 09 at Mon Dec 16 15:36:49 2013.

 -------------------------------------------------------------------
 #N Geom=AllCheck Guess=TCheck SCRF=Check GenChk RB1B95/CC-pVTZ Freq
 -------------------------------------------------------------------

 Structure from the checkpoint file:  "/tmp/rdj3/g09-18029/Gau-6473.chk"
 ------------------------------------------------------------------
 1H-tetrazole CH2N4 casno=288948 state=1 config=1 method=55 basis=6
 ------------------------------------------------------------------
 Charge =  0 Multiplicity = 1

                         Standard orientation:
 ---------------------------------------------------------------------
 Center     Atomic      Atomic             Coordinates (Angstroms)
 Number     Number       Type             X           Y           Z
 ---------------------------------------------------------------------
      1          6           0        1.058632    0.231410    0.000000
      2          7           0        0.000000    1.044267    0.000000
      3          7           0       -1.107504    0.300754    0.000000
      4          7           0       -0.717422   -0.915415    0.000000
      5          7           0        0.628381   -0.999449    0.000000
      6          1           0        2.082355    0.554553    0.000000
      7          1           0       -0.058334    2.045884    0.000000
 ---------------------------------------------------------------------

 SCF Done:  E(RB1B95) =  -258.253536491     A.U. after    1 cycles

 The electronic state is 1-A'.
 Alpha  occ. eigenvalues --  -14.55356 -14.51882 -14.50152 -14.47179 -10.36394
 Alpha  occ. eigenvalues --   -1.18557  -0.98095  -0.92547  -0.70572  -0.69198
 Alpha  occ. eigenvalues --   -0.62141  -0.52759  -0.51869  -0.40308  -0.35273
 Alpha  occ. eigenvalues --   -0.32882  -0.32401  -0.30960
 Alpha virt. eigenvalues --   -0.00983   0.02649   0.03411   0.07889   0.16408
 Alpha virt. eigenvalues --    0.18404   0.19119   0.26436   0.29136   0.31123
 Alpha virt. eigenvalues --    0.38197   0.38828   0.40913   0.43165   0.44351

 Mulliken charges:
               1
     1  C   -0.035008
     2  N   -0.008076
     3  N   -0.076452
     4  N   -0.072742
     5  N   -0.156974
     6  H    0.155825
     7  H    0.193428
 Sum of Mulliken charges =   0.00000

 Dipole moment (field-independent basis, Debye):
    X=              2.4360    Y=              4.6876    Z=              0.0000  Tot=              5.2828
 Quadrupole moment (field-independent basis, Debye-Ang):
   XX=            -28.6625   YY=            -26.1167   ZZ=            -28.1086
   XY=              1.7882   XZ=              0.0000   YZ=              0.0000

  Exact polarizability:  40.721   0.812  39.996   0.000   0.000  20.645
 Approx polarizability:  64.798   0.545  67.761   0.000   0.000  30.653

                      1                      2                      3
                     A"                     A"                     A"
 Frequencies --    611.9637               702.8975               755.3064
 Red. masses --      1.7504                 1.9643                 7.9839
 Frc consts  --      0.3862                 0.5718                 2.6836
 IR Inten    --     76.5598                 7.7251                 8.7165

                      4                      5                      6
                     A"                     A'                     A'
 Frequencies --    880.0704               989.2076              1024.7301
 Red. masses --      1.3846                 4.3500                 5.7015
 Frc consts  --      0.6318                 2.5079                 3.5274
 IR Inten    --     16.6430                 3.1206                 1.3438

                      7                      8                      9
                     A'                     A'                     A'
 Frequencies --   1084.6709              1093.2968              1161.5002
 Red. masses --      3.5240                 4.0383                 1.9950
 Frc consts  --      2.4428                 2.8439                 1.5858
 IR Inten    --     21.5699                25.8537                13.0339

                     10                     11                     12
                     A'                     A'                     A'
 Frequencies --   1290.1155              1335.3699              1485.9950
 Red. masses --      2.4279                10.5842                 3.3250
 Frc consts  --      2.3809                11.1202                 4.3259
 IR Inten    --      1.7726                13.7419                 8.7733

                     13                     14                     15
                     A'                     A'                     A'
 Frequencies --   1537.4998              3303.5814              3688.7233
 Red. masses --      3.7172                 1.1017                 1.0839
 Frc consts  --      5.1772                 7.0838                 8.6895
 IR Inten    --     16.1769                 1.1207                94.9016

 - Thermochemistry -
 -------------------
 Temperature   298.150 Kelvin.  Pressure   1.00000 Atm.
 Atom     1 has atomic number  6 and mass  12.00000

 Molecular mass:    70.02795 amu.
 Principal axes and moments of inertia in atomic units:
                           1         2         3
     Eigenvalues --   168.24426 171.04664 339.29090
           X            0.84723   0.53122   0.00000
           Y           -0.53122   0.84723   0.00000
           Z            0.00000   0.00000   1.00000
 This molecule is an asymmetric top.
 Rotational symmetry number  1.
 Rotational temperatures (Kelvin)      0.51481     0.50638     0.25528
 Rotational constants (GHZ):          10.72691    10.55116     5.31916
 Zero-point vibrational energy     125278.5 (Joules/Mol)
                                   29.94228 (Kcal/Mol)
 Warning -- explicit consideration of   1 degrees of freedom as
           vibrations may cause significant error
 Vibrational temperatures:    880.48  1011.31  1086.72  1266.22  1423.25
          (Kelvin)           1474.36  1560.60  1573.01  1671.14  1856.19
                             1921.30  2138.01  2212.12  4753.11  5307.24

 Zero-point correction=                           0.047716 (Hartree/Particle)
 Thermal correction to Energy=                    0.051138
 Thermal correction to Enthalpy=                  0.052083
 Thermal correction to Gibbs Free Energy=         0.021666
 Sum of electronic and zero-point Energies=           -258.205820
 Sum of electronic and thermal Energies=              -258.202398
 Sum of electronic and thermal Enthalpies=            -258.201454
 Sum of electronic and thermal Free Energies=         -258.231870

                     E (Thermal)             CV                S
                      KCal/Mol        Cal/Mol-Kelvin    Cal/Mol-Kelvin
 Total                   32.090             11.026             64.016
 Electronic               0.000              0.000              0.000
 Translational            0.889              2.981             38.656
 Rotational               0.889              2.981             23.794
 Vibrational             30.312              5.065              1.566
 Vibration     1          0.971              1.007              0.430

 Optimization completed.
    -- Stationary point found.
 Normal termination of Gaussian 09 at Mon Dec 16 15:37:48 2013.
