 Gaussian 09, Revision D.01,
 Gaussian 09:  EM64L-G09RevD.01 24-Apr-2013

 -------------------------------
 #B1B95/6-31G* opt=z-matrix freq
 -------------------------------

 ------------------------------------------------------------------
 1H-tetrazole CH2N4 casno=288948 state=1 config=1 method=55 basis=1
 ------------------------------------------------------------------
 Symbolic Z-matrix:
 Charge =  0 Multiplicity = 1

 SCF Done:  E(RB1B95) =  -258.160670177     A.U. after   15 cycles
 SCF Done:  E(RB1B95) =  -258.162780669     A.U. after   13 cycles
 SCF Done:  E(RB1B95) =  -258.162830282     A.U. after   12 cycles
 SCF Done:  E(RB1B95) =  -258.162840353     A.U. after    9 cycles
 SCF Done:  E(RB1B95) =  -258.162840806     A.U. after    8 cycles
 SCF Done:  E(RB1B95) =  -258.162815356     A.U. after   11 cycles
 SCF Done:  E(RB1B95) =  -258.162844166     A.U. after   10 cycles
 SCF Done:  E(RB1B95) =  -258.162835701     A.U. after   12 cycles
 SCF Done:  E(RB1B95) =  -258.162844825     A.U. after   10 cycles
 SCF Done:  E(RB1B95) =  -258.162842733     A.U. after   10 cycles
 SCF Done:  E(RB1B95) =  -258.162844823     A.U. after   10 cycles
 SCF Done:  E(RB1B95) =  -258.162844965     A.U. after    6 cycles
 SCF Done:  E(RB1B95) =  -258.162845068     A.U. after    5 cycles
 SCF Done:  E(RB1B95) =  -258.162845386     A.U. after    7 cycles
 SCF Done:  E(RB1B95) =  -258.162844877     A.U. after   10 cycles
 SCF Done:  E(RB1B95) =  -258.162845310     A.U. after    5 cycles
 SCF Done:  E(RB1B95) =  -258.162845796     A.U. after    8 cycles
 SCF Done:  E(RB1B95) =  -258.162845785     A.U. after    7 cycles
 SCF Done:  E(RB1B95) =  -258.162845813     A.U. after    8 cycles
 Optimization completed.
    -- Stationary point found.
 Normal termination of Gaussian 09 at Mon Nov 25 20:11:29 2013.

 --------------------------------------------------------------------
 #N Geom=AllCheck Guess=TCheck SCRF=Check GenChk RB1B95/6-31G(d) Freq
 --------------------------------------------------------------------

 Structure from the checkpoint file:  "/tmp/rdj3/g09-23219/Gau-32690.chk"
 ------------------------------------------------------------------
 1H-tetrazole CH2N4 casno=288948 state=1 config=1 method=55 basis=1
 ------------------------------------------------------------------
 Charge =  0 Multiplicity = 1

                         Standard orientation:
 ---------------------------------------------------------------------
 Center     Atomic      Atomic             Coordinates (Angstroms)
 Number     Number       Type             X           Y           Z
 ---------------------------------------------------------------------
      1          6           0        1.062583    0.232294    0.000000
      2          7           0        0.000000    1.047296    0.000000
      3          7           0       -1.112241    0.302679    0.000000
      4          7           0       -0.717932   -0.919036    0.000000
      5          7           0        0.629701   -1.002919    0.000000
      6          1           0        2.089850    0.556916    0.000000
      7          1           0       -0.062047    2.053175    0.000000
 ---------------------------------------------------------------------

 SCF Done:  E(RB1B95) =  -258.162845813     A.U. after    1 cycles

 The electronic state is 1-A'.
 Alpha  occ. eigenvalues --  -14.57057 -14.53265 -14.51426 -14.48509 -10.37675
 Alpha  occ. eigenvalues --   -1.18190  -0.97866  -0.92225  -0.70412  -0.68828
 Alpha  occ. eigenvalues --   -0.61852  -0.52099  -0.51670  -0.39806  -0.34780
 Alpha  occ. eigenvalues --   -0.32380  -0.31975  -0.30396
 Alpha virt. eigenvalues --   -0.00423   0.03456   0.07744   0.12878   0.20731
 Alpha virt. eigenvalues --    0.22065   0.30600   0.34371   0.44147   0.53775
 Alpha virt. eigenvalues --    0.54071   0.61638   0.62296   0.67027   0.68969

 Mulliken charges:
               1
     1  C    0.264121
     2  N   -0.443258
     3  N   -0.035081
     4  N   -0.082367
     5  N   -0.309319
     6  H    0.221317
     7  H    0.384587
 Sum of Mulliken charges =   0.00000

 Dipole moment (field-independent basis, Debye):
    X=              2.4932    Y=              4.7639    Z=              0.0000  Tot=              5.3768
 Quadrupole moment (field-independent basis, Debye-Ang):
   XX=            -28.4041   YY=            -25.8356   ZZ=            -28.0710
   XY=              1.7619   XZ=              0.0000   YZ=              0.0000

  Exact polarizability:  37.007   0.953  36.430   0.000   0.000  15.547
 Approx polarizability:  60.684   0.288  63.991   0.000   0.000  22.920

                      1                      2                      3
                     A"                     A"                     A"
 Frequencies --    601.8013               702.3198               750.1155
 Red. masses --      1.8520                 1.9244                 7.7545
 Frc consts  --      0.3952                 0.5593                 2.5708
 IR Inten    --     90.0093                11.7912                 9.2894

                      4                      5                      6
                     A"                     A'                     A'
 Frequencies --    859.9279               990.5742              1024.8842
 Red. masses --      1.3528                 4.5252                 5.3601
 Frc consts  --      0.5894                 2.6162                 3.3172
 IR Inten    --     17.5085                 3.0321                 2.0021

                      7                      8                      9
                     A'                     A'                     A'
 Frequencies --   1097.6329              1114.5105              1170.3167
 Red. masses --      2.9422                 5.4943                 1.8857
 Frc consts  --      2.0885                 4.0210                 1.5217
 IR Inten    --     30.6068                19.4412                10.6431

                     10                     11                     12
                     A'                     A'                     A'
 Frequencies --   1302.2537              1343.8436              1502.2522
 Red. masses --      2.5179                10.5269                 3.3953
 Frc consts  --      2.5158                11.2008                 4.5145
 IR Inten    --      1.6645                17.4655                 9.6882

                     13                     14                     15
                     A'                     A'                     A'
 Frequencies --   1550.2117              3338.9426              3697.0464
 Red. masses --      3.7396                 1.1014                 1.0840
 Frc consts  --      5.2949                 7.2344                 8.7292
 IR Inten    --     18.0707                 1.0079                92.4609

 - Thermochemistry -
 -------------------
 Temperature   298.150 Kelvin.  Pressure   1.00000 Atm.
 Atom     1 has atomic number  6 and mass  12.00000

 Molecular mass:    70.02795 amu.
 Principal axes and moments of inertia in atomic units:
                           1         2         3
     Eigenvalues --   169.30240 172.29282 341.59522
           X            0.83224   0.55442   0.00000
           Y           -0.55442   0.83224   0.00000
           Z            0.00000   0.00000   1.00000
 This molecule is an asymmetric top.
 Rotational symmetry number  1.
 Rotational temperatures (Kelvin)      0.51159     0.50271     0.25356
 Rotational constants (GHZ):          10.65987    10.47485     5.28327
 Zero-point vibrational energy     125886.8 (Joules/Mol)
                                   30.08767 (Kcal/Mol)
 Warning -- explicit consideration of   1 degrees of freedom as
           vibrations may cause significant error
 Vibrational temperatures:    865.86  1010.48  1079.25  1237.24  1425.21
          (Kelvin)           1474.58  1579.25  1603.53  1683.82  1873.65
                             1933.49  2161.40  2230.41  4803.99  5319.22

 Zero-point correction=                           0.047948 (Hartree/Particle)
 Thermal correction to Energy=                    0.051376
 Thermal correction to Enthalpy=                  0.052321
 Thermal correction to Gibbs Free Energy=         0.021885
 Sum of electronic and zero-point Energies=           -258.114898
 Sum of electronic and thermal Energies=              -258.111469
 Sum of electronic and thermal Enthalpies=            -258.110525
 Sum of electronic and thermal Free Energies=         -258.140961

                     E (Thermal)             CV                S
                      KCal/Mol        Cal/Mol-Kelvin    Cal/Mol-Kelvin
 Total                   32.239             11.033             64.057
 Electronic               0.000              0.000              0.000
 Translational            0.889              2.981             38.656
 Rotational               0.889              2.981             23.814
 Vibrational             30.462              5.072              1.587
 Vibration     1          0.960              1.028              0.447

 Normal termination of Gaussian 09 at Mon Nov 25 20:11:40 2013.
