 Gaussian 09, Revision D.01,
 Gaussian 09:  EM64L-G09RevD.01 24-Apr-2013

 --------------------------------
 #B1B95/6-311G* opt=z-matrix freq
 --------------------------------

 ------------------------------------------------------------------
 1H-tetrazole CH2N4 casno=288948 state=1 config=1 method=55 basis=7
 ------------------------------------------------------------------
 Symbolic Z-matrix:
 Charge =  0 Multiplicity = 1

 SCF Done:  E(RB1B95) =  -258.218508544     A.U. after   15 cycles
 SCF Done:  E(RB1B95) =  -258.219952917     A.U. after   12 cycles
 SCF Done:  E(RB1B95) =  -258.219990981     A.U. after   12 cycles
 SCF Done:  E(RB1B95) =  -258.219997189     A.U. after   11 cycles
 SCF Done:  E(RB1B95) =  -258.220001184     A.U. after    9 cycles
 SCF Done:  E(RB1B95) =  -258.219806206     A.U. after   12 cycles
 SCF Done:  E(RB1B95) =  -258.220001315     A.U. after   10 cycles
 SCF Done:  E(RB1B95) =  -258.220001497     A.U. after    9 cycles
 SCF Done:  E(RB1B95) =  -258.219993385     A.U. after   10 cycles
 SCF Done:  E(RB1B95) =  -258.220000098     A.U. after    8 cycles
 SCF Done:  E(RB1B95) =  -258.220001099     A.U. after    6 cycles
 SCF Done:  E(RB1B95) =  -258.220001428     A.U. after    5 cycles
 SCF Done:  E(RB1B95) =  -258.220001796     A.U. after    7 cycles
 SCF Done:  E(RB1B95) =  -258.220000589     A.U. after   10 cycles
 SCF Done:  E(RB1B95) =  -258.220001378     A.U. after    6 cycles
 SCF Done:  E(RB1B95) =  -258.220001657     A.U. after    5 cycles
 Optimization completed.
    -- Stationary point found.
 Normal termination of Gaussian 09 at Mon Nov 25 20:25:00 2013.

 ---------------------------------------------------------------------
 #N Geom=AllCheck Guess=TCheck SCRF=Check GenChk RB1B95/6-311G(d) Freq
 ---------------------------------------------------------------------

 Structure from the checkpoint file:  "/tmp/rdj3/g09-23219/Gau-15328.chk"
 ------------------------------------------------------------------
 1H-tetrazole CH2N4 casno=288948 state=1 config=1 method=55 basis=7
 ------------------------------------------------------------------
 Charge =  0 Multiplicity = 1

                         Standard orientation:
 ---------------------------------------------------------------------
 Center     Atomic      Atomic             Coordinates (Angstroms)
 Number     Number       Type             X           Y           Z
 ---------------------------------------------------------------------
      1          6           0        1.060283    0.230208    0.000000
      2          7           0        0.000000    1.046351    0.000000
      3          7           0       -1.109611    0.301443    0.000000
      4          7           0       -0.717731   -0.915702    0.000000
      5          7           0        0.629201   -1.001144    0.000000
      6          1           0        2.086413    0.553146    0.000000
      7          1           0       -0.061116    2.048975    0.000000
 ---------------------------------------------------------------------

 SCF Done:  E(RB1B95) =  -258.220001657     A.U. after    1 cycles

 The electronic state is 1-A'.
 Alpha  occ. eigenvalues --  -14.54911 -14.51233 -14.49369 -14.46487 -10.36210
 Alpha  occ. eigenvalues --   -1.18857  -0.98319  -0.92775  -0.70830  -0.69293
 Alpha  occ. eigenvalues --   -0.62352  -0.52604  -0.52066  -0.40220  -0.35190
 Alpha  occ. eigenvalues --   -0.32865  -0.32322  -0.30766
 Alpha virt. eigenvalues --   -0.00813   0.02985   0.03838   0.08220   0.18955
 Alpha virt. eigenvalues --    0.20265   0.23499   0.29655   0.34576   0.40310
 Alpha virt. eigenvalues --    0.42810   0.44952   0.51301   0.57049   0.57613

 Mulliken charges:
               1
     1  C    0.140223
     2  N   -0.444522
     3  N   -0.009167
     4  N   -0.088845
     5  N   -0.242522
     6  H    0.261881
     7  H    0.382951
 Sum of Mulliken charges =   0.00000

 Dipole moment (field-independent basis, Debye):
    X=              2.5011    Y=              4.8084    Z=              0.0000  Tot=              5.4200
 Quadrupole moment (field-independent basis, Debye-Ang):
   XX=            -28.6683   YY=            -26.1401   ZZ=            -28.1986
   XY=              1.7860   XZ=              0.0000   YZ=              0.0000

  Exact polarizability:  38.105   0.934  37.494   0.000   0.000  17.368
 Approx polarizability:  61.240   0.422  64.552   0.000   0.000  24.990

                      1                      2                      3
                     A"                     A"                     A"
 Frequencies --    623.0060               708.3560               752.3294
 Red. masses --      2.0848                 1.7452                 7.0106
 Frc consts  --      0.4768                 0.5159                 2.3379
 IR Inten    --     83.3400                17.7827                11.1161

                      4                      5                      6
                     A"                     A'                     A'
 Frequencies --    863.1344               991.4183              1028.0166
 Red. masses --      1.3653                 4.3435                 5.8836
 Frc consts  --      0.5993                 2.5154                 3.6635
 IR Inten    --     18.9780                 3.8860                 1.3733

                      7                      8                      9
                     A'                     A'                     A'
 Frequencies --   1089.8454              1102.7674              1165.8489
 Red. masses --      3.7137                 4.0489                 1.9943
 Frc consts  --      2.5989                 2.9010                 1.5971
 IR Inten    --     21.8747                27.7482                12.1028

                     10                     11                     12
                     A'                     A'                     A'
 Frequencies --   1298.5788              1341.0121              1499.0404
 Red. masses --      2.5102                 9.8666                 3.4093
 Frc consts  --      2.4940                10.4540                 4.5138
 IR Inten    --      1.2429                17.9699                 9.5933

                     13                     14                     15
                     A'                     A'                     A'
 Frequencies --   1552.4585              3312.2470              3710.2345
 Red. masses --      3.3000                 1.1017                 1.0838
 Frc consts  --      4.6860                 7.1212                 8.7901
 IR Inten    --     18.3875                 0.4749                82.0370

 - Thermochemistry -
 -------------------
 Temperature   298.150 Kelvin.  Pressure   1.00000 Atm.
 Atom     1 has atomic number  6 and mass  12.00000

 Molecular mass:    70.02795 amu.
 Principal axes and moments of inertia in atomic units:
                           1         2         3
     Eigenvalues --   168.53109 171.72904 340.26014
           X            0.83762   0.54625   0.00000
           Y           -0.54625   0.83762   0.00000
           Z            0.00000   0.00000   1.00000
 This molecule is an asymmetric top.
 Rotational symmetry number  1.
 Rotational temperatures (Kelvin)      0.51393     0.50436     0.25455
 Rotational constants (GHZ):          10.70865    10.50924     5.30400
 Zero-point vibrational energy     125836.9 (Joules/Mol)
                                   30.07575 (Kcal/Mol)
 Vibrational temperatures:    896.37  1019.17  1082.43  1241.86  1426.43
          (Kelvin)           1479.08  1568.04  1586.63  1677.39  1868.36
                             1929.41  2156.78  2233.64  4765.58  5338.19

 Zero-point correction=                           0.047929 (Hartree/Particle)
 Thermal correction to Energy=                    0.051344
 Thermal correction to Enthalpy=                  0.052288
 Thermal correction to Gibbs Free Energy=         0.021878
 Sum of electronic and zero-point Energies=           -258.172073
 Sum of electronic and thermal Energies=              -258.168657
 Sum of electronic and thermal Enthalpies=            -258.167713
 Sum of electronic and thermal Free Energies=         -258.198124

                     E (Thermal)             CV                S
                      KCal/Mol        Cal/Mol-Kelvin    Cal/Mol-Kelvin
 Total                   32.219             10.987             64.005
 Electronic               0.000              0.000              0.000
 Translational            0.889              2.981             38.656
 Rotational               0.889              2.981             23.803
 Vibrational             30.442              5.026              1.546

 Normal termination of Gaussian 09 at Mon Nov 25 20:25:16 2013.
