 Gaussian 09, Revision D.01,
 Gaussian 09:  EM64L-G09RevD.01 24-Apr-2013

 -------------------------------------
 #B1B95/6-31G(2df,p) opt=z-matrix freq
 -------------------------------------

 -------------------------------------------------------------------
 1H-tetrazole CH2N4 casno=288948 state=1 config=1 method=55 basis=19
 -------------------------------------------------------------------
 Symbolic Z-matrix:
 Charge =  0 Multiplicity = 1

 SCF Done:  E(RB1B95) =  -258.180304475     A.U. after   15 cycles
 SCF Done:  E(RB1B95) =  -258.181919638     A.U. after   12 cycles
 SCF Done:  E(RB1B95) =  -258.181977729     A.U. after   12 cycles
 SCF Done:  E(RB1B95) =  -258.181981779     A.U. after    9 cycles
 SCF Done:  E(RB1B95) =  -258.181981246     A.U. after    9 cycles
 SCF Done:  E(RB1B95) =  -258.181985807     A.U. after    4 cycles
 SCF Done:  E(RB1B95) =  -258.181937473     A.U. after   10 cycles
 SCF Done:  E(RB1B95) =  -258.181985497     A.U. after    8 cycles
 SCF Done:  E(RB1B95) =  -258.181985787     A.U. after    2 cycles
 SCF Done:  E(RB1B95) =  -258.181986217     A.U. after    8 cycles
 SCF Done:  E(RB1B95) =  -258.181984838     A.U. after    8 cycles
 SCF Done:  E(RB1B95) =  -258.181985325     A.U. after    6 cycles
 SCF Done:  E(RB1B95) =  -258.181985636     A.U. after    6 cycles
 SCF Done:  E(RB1B95) =  -258.181985838     A.U. after    5 cycles
 SCF Done:  E(RB1B95) =  -258.181985968     A.U. after    4 cycles
 SCF Done:  E(RB1B95) =  -258.181986052     A.U. after    4 cycles
 SCF Done:  E(RB1B95) =  -258.181986257     A.U. after    7 cycles
 SCF Done:  E(RB1B95) =  -258.181986250     A.U. after    8 cycles
 SCF Done:  E(RB1B95) =  -258.181986235     A.U. after    7 cycles
 Optimization completed.
    -- Stationary point found.
 Normal termination of Gaussian 09 at Mon Nov 25 20:09:47 2013.

 ----------------------------------------------------------------------
 #N Geom=AllCheck Guess=TCheck SCRF=Check GenChk RB1B95/6-31G(2df,p) Fr
 eq
 ----------------------------------------------------------------------

 Structure from the checkpoint file:  "/tmp/rdj3/g09-23219/Gau-30948.chk"
 -------------------------------------------------------------------
 1H-tetrazole CH2N4 casno=288948 state=1 config=1 method=55 basis=19
 -------------------------------------------------------------------
 Charge =  0 Multiplicity = 1

                         Standard orientation:
 ---------------------------------------------------------------------
 Center     Atomic      Atomic             Coordinates (Angstroms)
 Number     Number       Type             X           Y           Z
 ---------------------------------------------------------------------
      1          6           0        1.059576    0.231889    0.000000
      2          7           0        0.000000    1.046256    0.000000
      3          7           0       -1.109144    0.302381    0.000000
      4          7           0       -0.717151   -0.917444    0.000000
      5          7           0        0.629006   -1.002388    0.000000
      6          1           0        2.084429    0.558113    0.000000
      7          1           0       -0.060862    2.048925    0.000000
 ---------------------------------------------------------------------

 SCF Done:  E(RB1B95) =  -258.181986235     A.U. after    1 cycles

 The electronic state is 1-A'.
 Alpha  occ. eigenvalues --  -14.56155 -14.52569 -14.50865 -14.47933 -10.37003
 Alpha  occ. eigenvalues --   -1.17744  -0.97477  -0.91784  -0.69996  -0.68498
 Alpha  occ. eigenvalues --   -0.61459  -0.52024  -0.51238  -0.39596  -0.34604
 Alpha  occ. eigenvalues --   -0.32136  -0.31743  -0.30259
 Alpha virt. eigenvalues --   -0.00181   0.03561   0.08077   0.13155   0.20630
 Alpha virt. eigenvalues --    0.21981   0.28914   0.31037   0.40784   0.45449
 Alpha virt. eigenvalues --    0.48204   0.49972   0.53271   0.56713   0.58319

 Mulliken charges:
               1
     1  C    0.107555
     2  N   -0.220841
     3  N   -0.070734
     4  N   -0.086103
     5  N   -0.222719
     6  H    0.181779
     7  H    0.311063
 Sum of Mulliken charges =   0.00000

 Dipole moment (field-independent basis, Debye):
    X=              2.4262    Y=              4.6325    Z=              0.0000  Tot=              5.2294
 Quadrupole moment (field-independent basis, Debye-Ang):
   XX=            -28.2144   YY=            -25.5898   ZZ=            -27.8667
   XY=              1.7260   XZ=              0.0000   YZ=              0.0000

  Exact polarizability:  38.381   0.930  37.615   0.000   0.000  18.319
 Approx polarizability:  62.991   0.417  66.038   0.000   0.000  28.164

                      1                      2                      3
                     A"                     A"                     A"
 Frequencies --    612.1069               702.5980               754.0086
 Red. masses --      1.7725                 1.9631                 8.0279
 Frc consts  --      0.3913                 0.5710                 2.6891
 IR Inten    --     76.0073                 8.7306                 8.5146

                      4                      5                      6
                     A"                     A'                     A'
 Frequencies --    877.4475               991.2153              1025.2534
 Red. masses --      1.3703                 4.3724                 5.1928
 Frc consts  --      0.6216                 2.5311                 3.2160
 IR Inten    --     12.8611                 2.9181                 2.5837

                      7                      8                      9
                     A'                     A'                     A'
 Frequencies --   1098.7242              1110.6324              1166.9329
 Red. masses --      2.8058                 5.3425                 1.9780
 Frc consts  --      1.9957                 3.8827                 1.5870
 IR Inten    --     31.0512                17.4174                10.6295

                     10                     11                     12
                     A'                     A'                     A'
 Frequencies --   1294.9461              1343.4595              1491.6996
 Red. masses --      2.5305                10.5445                 3.3523
 Frc consts  --      2.5001                11.2131                 4.3949
 IR Inten    --      1.6667                14.6466                 9.2140

                     13                     14                     15
                     A'                     A'                     A'
 Frequencies --   1540.5071              3316.1804              3706.5304
 Red. masses --      3.9224                 1.1014                 1.0837
 Frc consts  --      5.4844                 7.1361                 8.7720
 IR Inten    --     16.3911                 1.0841                97.0855

 - Thermochemistry -
 -------------------
 Temperature   298.150 Kelvin.  Pressure   1.00000 Atm.
 Atom     1 has atomic number  6 and mass  12.00000

 Molecular mass:    70.02795 amu.
 Principal axes and moments of inertia in atomic units:
                           1         2         3
     Eigenvalues --   168.76202 171.65234 340.41436
           X            0.79207   0.61043   0.00000
           Y           -0.61043   0.79207   0.00000
           Z            0.00000   0.00000   1.00000
 This molecule is an asymmetric top.
 Rotational symmetry number  1.
 Rotational temperatures (Kelvin)      0.51323     0.50459     0.25444
 Rotational constants (GHZ):          10.69400    10.51393     5.30160
 Zero-point vibrational energy     125800.7 (Joules/Mol)
                                   30.06710 (Kcal/Mol)
 Warning -- explicit consideration of   1 degrees of freedom as
           vibrations may cause significant error
 Vibrational temperatures:    880.68  1010.88  1084.85  1262.45  1426.14
          (Kelvin)           1475.11  1580.82  1597.95  1678.95  1863.14
                             1932.94  2146.22  2216.44  4771.24  5332.86

 Zero-point correction=                           0.047915 (Hartree/Particle)
 Thermal correction to Energy=                    0.051334
 Thermal correction to Enthalpy=                  0.052278
 Thermal correction to Gibbs Free Energy=         0.021861
 Sum of electronic and zero-point Energies=           -258.134071
 Sum of electronic and thermal Energies=              -258.130652
 Sum of electronic and thermal Enthalpies=            -258.129708
 Sum of electronic and thermal Free Energies=         -258.160125

                     E (Thermal)             CV                S
                      KCal/Mol        Cal/Mol-Kelvin    Cal/Mol-Kelvin
 Total                   32.212             10.991             64.017
 Electronic               0.000              0.000              0.000
 Translational            0.889              2.981             38.656
 Rotational               0.889              2.981             23.804
 Vibrational             30.435              5.029              1.557
 Vibration     1          0.971              1.006              0.429

 Normal termination of Gaussian 09 at Mon Nov 25 20:10:39 2013.
