 Gaussian 09, Revision D.01,
 Gaussian 09:  EM64L-G09RevD.01 24-Apr-2013

 ---------------------------
 #B1B95/aug-cc-pVDZ opt freq
 ---------------------------

 -------------------------------------------------------------------
 1H-tetrazole CH2N4 casno=288948 state=1 config=1 method=55 basis=17
 -------------------------------------------------------------------
 Symbolic Z-matrix:
 Charge =  0 Multiplicity = 1

 SCF Done:  E(RB1B95) =  -258.205489661     A.U. after   12 cycles
 SCF Done:  E(RB1B95) =  -258.207807550     A.U. after   11 cycles
 SCF Done:  E(RB1B95) =  -258.207867066     A.U. after   10 cycles
 SCF Done:  E(RB1B95) =  -258.207882557     A.U. after   10 cycles
 SCF Done:  E(RB1B95) =  -258.207886021     A.U. after    9 cycles
 Optimization completed.
    -- Stationary point found.
 Normal termination of Gaussian 09 at Mon Dec 16 15:21:41 2013.

 ----------------------------------------------------------------------
 #N Geom=AllCheck Guess=TCheck SCRF=Check GenChk RB1B95/Aug-CC-pVDZ Fre
 q
 ----------------------------------------------------------------------

 Structure from the checkpoint file:  "/tmp/rdj3/g09-18029/Gau-2486.chk"
 -------------------------------------------------------------------
 1H-tetrazole CH2N4 casno=288948 state=1 config=1 method=55 basis=17
 -------------------------------------------------------------------
 Charge =  0 Multiplicity = 1

                         Standard orientation:
 ---------------------------------------------------------------------
 Center     Atomic      Atomic             Coordinates (Angstroms)
 Number     Number       Type             X           Y           Z
 ---------------------------------------------------------------------
      1          6           0        1.062788    0.232335    0.000000
      2          7           0        0.000000    1.047953    0.000000
      3          7           0       -1.111666    0.304428    0.000000
      4          7           0       -0.719142   -0.919379    0.000000
      5          7           0        0.629003   -1.005207    0.000000
      6          1           0        2.093557    0.556942    0.000000
      7          1           0       -0.057646    2.054480    0.000000
 ---------------------------------------------------------------------

 SCF Done:  E(RB1B95) =  -258.207886021     A.U. after    1 cycles

 The electronic state is 1-A'.
 Alpha  occ. eigenvalues --  -14.57024 -14.53673 -14.52020 -14.49108 -10.37942
 Alpha  occ. eigenvalues --   -1.18942  -0.98658  -0.92984  -0.71018  -0.69616
 Alpha  occ. eigenvalues --   -0.62365  -0.52852  -0.52164  -0.40708  -0.35595
 Alpha  occ. eigenvalues --   -0.33123  -0.33008  -0.31529
 Alpha virt. eigenvalues --   -0.01804  -0.01488   0.01476   0.01490   0.04952
 Alpha virt. eigenvalues --    0.05817   0.07044   0.08371   0.09540   0.10568
 Alpha virt. eigenvalues --    0.11326   0.12652   0.14118   0.15086   0.16283

 Mulliken charges:
               1
     1  C    0.907149
     2  N    0.022652
     3  N   -0.095611
     4  N   -0.265085
     5  N   -0.285530
     6  H   -0.211005
     7  H   -0.072570
 Sum of Mulliken charges =   0.00000

 Dipole moment (field-independent basis, Debye):
    X=              2.5190    Y=              4.7405    Z=              0.0000  Tot=              5.3682
 Quadrupole moment (field-independent basis, Debye-Ang):
   XX=            -28.9964   YY=            -26.4833   ZZ=            -28.6798
   XY=              1.8477   XZ=              0.0000   YZ=              0.0000

  Exact polarizability:  44.982   0.530  44.406   0.000   0.000  25.906
 Approx polarizability:  69.294   0.366  72.287   0.000   0.000  36.634

                      1                      2                      3
                     A"                     A"                     A"
 Frequencies --    616.5905               699.8744               749.6038
 Red. masses --      1.8545                 1.8364                 8.2310
 Frc consts  --      0.4154                 0.5300                 2.7250
 IR Inten    --     75.2680                10.6973                 7.9500

                      4                      5                      6
                     A"                     A'                     A'
 Frequencies --    864.9446               985.0068              1019.7317
 Red. masses --      1.3844                 4.0214                 5.4882
 Frc consts  --      0.6102                 2.2988                 3.3624
 IR Inten    --     17.9479                 2.3867                 1.9811

                      7                      8                      9
                     A'                     A'                     A'
 Frequencies --   1094.4785              1106.1402              1157.3836
 Red. masses --      2.6517                 4.7693                 2.0892
 Frc consts  --      1.8715                 3.4382                 1.6489
 IR Inten    --     30.5783                19.1652                 8.8835

                     10                     11                     12
                     A'                     A'                     A'
 Frequencies --   1290.0934              1336.3465              1491.7390
 Red. masses --      2.6376                10.6563                 3.5172
 Frc consts  --      2.5864                11.2123                 4.6114
 IR Inten    --      1.1908                13.1025                 9.0879

                     13                     14                     15
                     A'                     A'                     A'
 Frequencies --   1535.6361              3316.0345              3686.0208
 Red. masses --      3.8261                 1.1023                 1.0846
 Frc consts  --      5.3159                 7.1413                 8.6819
 IR Inten    --     16.2470                 1.7933                98.4135

 - Thermochemistry -
 -------------------
 Temperature   298.150 Kelvin.  Pressure   1.00000 Atm.
 Atom     1 has atomic number  6 and mass  12.00000

 Molecular mass:    70.02795 amu.
 Principal axes and moments of inertia in atomic units:
                           1         2         3
     Eigenvalues --   169.57331 172.47503 342.04834
           X            0.79856   0.60192   0.00000
           Y           -0.60192   0.79856   0.00000
           Z            0.00000   0.00000   1.00000
 This molecule is an asymmetric top.
 Rotational symmetry number  1.
 Rotational temperatures (Kelvin)      0.51078     0.50218     0.25322
 Rotational constants (GHZ):          10.64284    10.46378     5.27628
 Zero-point vibrational energy     125306.6 (Joules/Mol)
                                   29.94899 (Kcal/Mol)
 Warning -- explicit consideration of   1 degrees of freedom as
           vibrations may cause significant error
 Vibrational temperatures:    887.14  1006.96  1078.51  1244.46  1417.20
          (Kelvin)           1467.16  1574.71  1591.49  1665.21  1856.15
                             1922.70  2146.28  2209.44  4771.03  5303.36

 Zero-point correction=                           0.047727 (Hartree/Particle)
 Thermal correction to Energy=                    0.051152
 Thermal correction to Enthalpy=                  0.052097
 Thermal correction to Gibbs Free Energy=         0.021665
 Sum of electronic and zero-point Energies=           -258.160159
 Sum of electronic and thermal Energies=              -258.156734
 Sum of electronic and thermal Enthalpies=            -258.155789
 Sum of electronic and thermal Free Energies=         -258.186221

                     E (Thermal)             CV                S
                      KCal/Mol        Cal/Mol-Kelvin    Cal/Mol-Kelvin
 Total                   32.099             11.046             64.049
 Electronic               0.000              0.000              0.000
 Translational            0.889              2.981             38.656
 Rotational               0.889              2.981             23.818
 Vibrational             30.321              5.085              1.575
 Vibration     1          0.976              0.997              0.422

 Optimization completed.
    -- Stationary point found.
 Normal termination of Gaussian 09 at Mon Dec 16 15:22:08 2013.
