 Gaussian 09, Revision D.01,
 Gaussian 09:  EM64L-G09RevD.01 24-Apr-2013

 -----------------------------
 #B1B95/TZVP opt=z-matrix freq
 -----------------------------

 -------------------------------------------------------------------
 1H-tetrazole CH2N4 casno=288948 state=1 config=1 method=55 basis=32
 -------------------------------------------------------------------
 Symbolic Z-matrix:
 Charge =  0 Multiplicity = 1

 SCF Done:  E(RB1B95) =  -258.242386965     A.U. after   15 cycles
 SCF Done:  E(RB1B95) =  -258.243658018     A.U. after   12 cycles
 SCF Done:  E(RB1B95) =  -258.243685498     A.U. after   11 cycles
 SCF Done:  E(RB1B95) =  -258.243693734     A.U. after   11 cycles
 SCF Done:  E(RB1B95) =  -258.243700831     A.U. after    9 cycles
 SCF Done:  E(RB1B95) =  -258.243235160     A.U. after   12 cycles
 SCF Done:  E(RB1B95) =  -258.243701617     A.U. after    9 cycles
 SCF Done:  E(RB1B95) =  -258.243701739     A.U. after    7 cycles
 SCF Done:  E(RB1B95) =  -258.243501034     A.U. after   11 cycles
 SCF Done:  E(RB1B95) =  -258.243701461     A.U. after    9 cycles
 SCF Done:  E(RB1B95) =  -258.243701773     A.U. after    3 cycles
 SCF Done:  E(RB1B95) =  -258.243701720     A.U. after    7 cycles
 SCF Done:  E(RB1B95) =  -258.243701722     A.U. after    7 cycles
 SCF Done:  E(RB1B95) =  -258.243701425     A.U. after    9 cycles
 SCF Done:  E(RB1B95) =  -258.243701581     A.U. after    6 cycles
 SCF Done:  E(RB1B95) =  -258.243701796     A.U. after    9 cycles
 SCF Done:  E(RB1B95) =  -258.243701743     A.U. after    7 cycles
 Optimization completed.
    -- Stationary point found.
 Normal termination of Gaussian 09 at Mon Nov 25 20:14:53 2013.

 ----------------------------------------------------------------
 #N Geom=AllCheck Guess=TCheck SCRF=Check GenChk RB1B95/TZVP Freq
 ----------------------------------------------------------------

 Structure from the checkpoint file:  "/tmp/rdj3/g09-23219/Gau-6829.chk"
 -------------------------------------------------------------------
 1H-tetrazole CH2N4 casno=288948 state=1 config=1 method=55 basis=32
 -------------------------------------------------------------------
 Charge =  0 Multiplicity = 1

                         Standard orientation:
 ---------------------------------------------------------------------
 Center     Atomic      Atomic             Coordinates (Angstroms)
 Number     Number       Type             X           Y           Z
 ---------------------------------------------------------------------
      1          6           0        1.059956    0.231649    0.000000
      2          7           0        0.000000    1.045964    0.000000
      3          7           0       -1.109166    0.299167    0.000000
      4          7           0       -0.717753   -0.916171    0.000000
      5          7           0        0.629292   -0.999129    0.000000
      6          1           0        2.085162    0.552442    0.000000
      7          1           0       -0.061513    2.048850    0.000000
 ---------------------------------------------------------------------

 SCF Done:  E(RB1B95) =  -258.243701743     A.U. after    1 cycles

 The electronic state is 1-A'.
 Alpha  occ. eigenvalues --  -14.55631 -14.52140 -14.50322 -14.47374 -10.36679
 Alpha  occ. eigenvalues --   -1.19457  -0.98757  -0.93318  -0.71158  -0.69791
 Alpha  occ. eigenvalues --   -0.62726  -0.53077  -0.52441  -0.40714  -0.35698
 Alpha  occ. eigenvalues --   -0.33406  -0.32802  -0.31278
 Alpha virt. eigenvalues --   -0.01551   0.02221   0.02940   0.08288   0.13351
 Alpha virt. eigenvalues --    0.14289   0.17954   0.21721   0.24802   0.28607
 Alpha virt. eigenvalues --    0.30022   0.33752   0.35617   0.36632   0.38074

 Mulliken charges:
               1
     1  C   -0.106441
     2  N   -0.096215
     3  N   -0.074409
     4  N   -0.079648
     5  N   -0.061845
     6  H    0.144372
     7  H    0.274186
 Sum of Mulliken charges =   0.00000

 Dipole moment (field-independent basis, Debye):
    X=              2.5550    Y=              4.8710    Z=              0.0000  Tot=              5.5004
 Quadrupole moment (field-independent basis, Debye-Ang):
   XX=            -29.0948   YY=            -26.5440   ZZ=            -28.3326
   XY=              1.8442   XZ=              0.0000   YZ=              0.0000

  Exact polarizability:  40.917   0.689  40.464   0.000   0.000  21.666
 Approx polarizability:  63.138   0.256  66.803   0.000   0.000  30.127

                      1                      2                      3
                     A"                     A"                     A"
 Frequencies --    596.8826               702.9096               745.7684
 Red. masses --      2.2320                 1.7534                 6.6335
 Frc consts  --      0.4685                 0.5104                 2.1737
 IR Inten    --     67.1566                18.1809                11.2239

                      4                      5                      6
                     A"                     A'                     A'
 Frequencies --    856.4697               988.0154              1022.9705
 Red. masses --      1.3180                 4.6197                 6.2335
 Frc consts  --      0.5696                 2.6570                 3.8434
 IR Inten    --     24.0083                 3.7992                 0.6398

                      7                      8                      9
                     A'                     A'                     A'
 Frequencies --   1074.1830              1090.3522              1163.2220
 Red. masses --      4.1835                 3.7184                 1.9447
 Frc consts  --      2.8441                 2.6046                 1.5504
 IR Inten    --     19.4969                30.7431                13.9862

                     10                     11                     12
                     A'                     A'                     A'
 Frequencies --   1291.4783              1331.3693              1483.5644
 Red. masses --      2.3212                10.3324                 3.2620
 Frc consts  --      2.2811                10.7907                 4.2301
 IR Inten    --      2.6352                17.4070                 9.5468

                     13                     14                     15
                     A'                     A'                     A'
 Frequencies --   1538.9303              3312.2863              3689.8275
 Red. masses --      3.5586                 1.1018                 1.0840
 Frc consts  --      4.9655                 7.1223                 8.6955
 IR Inten    --     17.5446                 2.2400               105.9855

 - Thermochemistry -
 -------------------
 Temperature   298.150 Kelvin.  Pressure   1.00000 Atm.
 Atom     1 has atomic number  6 and mass  12.00000

 Molecular mass:    70.02795 amu.
 Principal axes and moments of inertia in atomic units:
                           1         2         3
     Eigenvalues --   168.56162 171.36496 339.92658
           X            0.87025   0.49261   0.00000
           Y           -0.49261   0.87025   0.00000
           Z            0.00000   0.00000   1.00000
 This molecule is an asymmetric top.
 Rotational symmetry number  1.
 Rotational temperatures (Kelvin)      0.51384     0.50543     0.25480
 Rotational constants (GHZ):          10.70671    10.53157     5.30921
 Zero-point vibrational energy     124939.4 (Joules/Mol)
                                   29.86122 (Kcal/Mol)
 Warning -- explicit consideration of   1 degrees of freedom as
           vibrations may cause significant error
 Vibrational temperatures:    858.78  1011.33  1072.99  1232.27  1421.53
          (Kelvin)           1471.82  1545.51  1568.77  1673.61  1858.15
                             1915.54  2134.52  2214.17  4765.64  5308.83

 Zero-point correction=                           0.047587 (Hartree/Particle)
 Thermal correction to Energy=                    0.051028
 Thermal correction to Enthalpy=                  0.051972
 Thermal correction to Gibbs Free Energy=         0.021527
 Sum of electronic and zero-point Energies=           -258.196115
 Sum of electronic and thermal Energies=              -258.192674
 Sum of electronic and thermal Enthalpies=            -258.191730
 Sum of electronic and thermal Free Energies=         -258.222174

                     E (Thermal)             CV                S
                      KCal/Mol        Cal/Mol-Kelvin    Cal/Mol-Kelvin
 Total                   32.020             11.125             64.076
 Electronic               0.000              0.000              0.000
 Translational            0.889              2.981             38.656
 Rotational               0.889              2.981             23.800
 Vibrational             30.243              5.163              1.620
 Vibration     1          0.955              1.038              0.455

 Normal termination of Gaussian 09 at Mon Nov 25 20:15:12 2013.
