 Gaussian 09, Revision D.01,
 Gaussian 09:  EM64L-G09RevD.01 24-Apr-2013

 ------------------------
 #B1B95/6-31+G** opt freq
 ------------------------

 ------------------------------------------------------------------
 1H-tetrazole CH2N4 casno=288948 state=1 config=1 method=55 basis=4
 ------------------------------------------------------------------
 Symbolic Z-matrix:
 Charge =  0 Multiplicity = 1

 SCF Done:  E(RB1B95) =  -258.175456213     A.U. after   12 cycles
 SCF Done:  E(RB1B95) =  -258.177501860     A.U. after   12 cycles
 SCF Done:  E(RB1B95) =  -258.177553830     A.U. after   10 cycles
 SCF Done:  E(RB1B95) =  -258.177567772     A.U. after   10 cycles
 SCF Done:  E(RB1B95) =  -258.177571818     A.U. after    9 cycles
 Optimization completed.
    -- Stationary point found.
 Normal termination of Gaussian 09 at Mon Dec 16 15:35:06 2013.

 ----------------------------------------------------------------------
 #N Geom=AllCheck Guess=TCheck SCRF=Check GenChk RB1B95/6-31+G(d,p) Fre
 q
 ----------------------------------------------------------------------

 Structure from the checkpoint file:  "/tmp/rdj3/g09-18029/Gau-5211.chk"
 ------------------------------------------------------------------
 1H-tetrazole CH2N4 casno=288948 state=1 config=1 method=55 basis=4
 ------------------------------------------------------------------
 Charge =  0 Multiplicity = 1

                         Standard orientation:
 ---------------------------------------------------------------------
 Center     Atomic      Atomic             Coordinates (Angstroms)
 Number     Number       Type             X           Y           Z
 ---------------------------------------------------------------------
      1          6           0        1.062767    0.232988    0.000000
      2          7           0        0.000000    1.048016    0.000000
      3          7           0       -1.111638    0.302141    0.000000
      4          7           0       -0.718143   -0.919525    0.000000
      5          7           0        0.628786   -1.002902    0.000000
      6          1           0        2.090364    0.554696    0.000000
      7          1           0       -0.060005    2.053267    0.000000
 ---------------------------------------------------------------------

 SCF Done:  E(RB1B95) =  -258.177571818     A.U. after    1 cycles

 The electronic state is 1-A'.
 Alpha  occ. eigenvalues --  -14.58014 -14.54470 -14.52671 -14.49782 -10.38560
 Alpha  occ. eigenvalues --   -1.19321  -0.98918  -0.93280  -0.71314  -0.69824
 Alpha  occ. eigenvalues --   -0.62682  -0.53080  -0.52502  -0.40847  -0.35834
 Alpha  occ. eigenvalues --   -0.33383  -0.33087  -0.31533
 Alpha virt. eigenvalues --   -0.01879   0.00093   0.01648   0.03666   0.05742
 Alpha virt. eigenvalues --    0.06745   0.08912   0.10577   0.12675   0.14478
 Alpha virt. eigenvalues --    0.15953   0.16873   0.18406   0.19580   0.19808

 Mulliken charges:
               1
     1  C    0.034713
     2  N   -0.298887
     3  N   -0.009566
     4  N   -0.010326
     5  N   -0.257822
     6  H    0.194843
     7  H    0.347045
 Sum of Mulliken charges =   0.00000

 Dipole moment (field-independent basis, Debye):
    X=              2.6188    Y=              4.9011    Z=              0.0000  Tot=              5.5569
 Quadrupole moment (field-independent basis, Debye-Ang):
   XX=            -29.2365   YY=            -26.6422   ZZ=            -28.6980
   XY=              1.9025   XZ=              0.0000   YZ=              0.0000

  Exact polarizability:  42.847   0.398  42.427   0.000   0.000  23.508
 Approx polarizability:  65.329  -0.016  68.850   0.000   0.000  32.255

                      1                      2                      3
                     A"                     A"                     A"
 Frequencies --    604.6308               697.6788               744.5580
 Red. masses --      1.9584                 1.8243                 7.8783
 Frc consts  --      0.4218                 0.5232                 2.5732
 IR Inten    --     81.5204                14.4147                 9.1967

                      4                      5                      6
                     A"                     A'                     A'
 Frequencies --    861.5179               987.7066              1021.3254
 Red. masses --      1.3475                 4.5206                 5.5435
 Frc consts  --      0.5893                 2.5984                 3.4069
 IR Inten    --     21.4546                 2.7040                 1.7533

                      7                      8                      9
                     A'                     A'                     A'
 Frequencies --   1094.4275              1111.3309              1164.6517
 Red. masses --      2.9205                 5.3165                 1.8898
 Frc consts  --      2.0610                 3.8687                 1.5103
 IR Inten    --     28.5500                22.9589                10.6122

                     10                     11                     12
                     A'                     A'                     A'
 Frequencies --   1298.2112              1342.0993              1496.2063
 Red. masses --      2.5052                10.3814                 3.3996
 Frc consts  --      2.4876                11.0173                 4.4839
 IR Inten    --      1.4218                18.2502                10.1381

                     13                     14                     15
                     A'                     A'                     A'
 Frequencies --   1544.6455              3330.4629              3706.4746
 Red. masses --      3.7950                 1.1017                 1.0843
 Frc consts  --      5.3349                 7.1998                 8.7767
 IR Inten    --     17.9571                 2.2830               108.3166

 - Thermochemistry -
 -------------------
 Temperature   298.150 Kelvin.  Pressure   1.00000 Atm.
 Atom     1 has atomic number  6 and mass  12.00000

 Molecular mass:    70.02795 amu.
 Principal axes and moments of inertia in atomic units:
                           1         2         3
     Eigenvalues --   169.48535 172.13278 341.61812
           X            0.82500   0.56513   0.00000
           Y           -0.56513   0.82500   0.00000
           Z            0.00000   0.00000   1.00000
 This molecule is an asymmetric top.
 Rotational symmetry number  1.
 Rotational temperatures (Kelvin)      0.51104     0.50318     0.25354
 Rotational constants (GHZ):          10.64836    10.48459     5.28292
 Zero-point vibrational energy     125643.3 (Joules/Mol)
                                   30.02948 (Kcal/Mol)
 Warning -- explicit consideration of   1 degrees of freedom as
           vibrations may cause significant error
 Vibrational temperatures:    869.93  1003.80  1071.25  1239.53  1421.09
          (Kelvin)           1469.46  1574.64  1598.96  1675.67  1867.83
                             1930.98  2152.70  2222.40  4791.79  5332.78

 Zero-point correction=                           0.047855 (Hartree/Particle)
 Thermal correction to Energy=                    0.051288
 Thermal correction to Enthalpy=                  0.052232
 Thermal correction to Gibbs Free Energy=         0.021791
 Sum of electronic and zero-point Energies=           -258.129717
 Sum of electronic and thermal Energies=              -258.126284
 Sum of electronic and thermal Enthalpies=            -258.125340
 Sum of electronic and thermal Free Energies=         -258.155781

                     E (Thermal)             CV                S
                      KCal/Mol        Cal/Mol-Kelvin    Cal/Mol-Kelvin
 Total                   32.184             11.066             64.069
 Electronic               0.000              0.000              0.000
 Translational            0.889              2.981             38.656
 Rotational               0.889              2.981             23.815
 Vibrational             30.406              5.104              1.598
 Vibration     1          0.963              1.022              0.442

 Optimization completed.
    -- Stationary point found.
 Normal termination of Gaussian 09 at Mon Dec 16 15:35:20 2013.
