 Gaussian 09, Revision D.01,
 Gaussian 09:  EM64L-G09RevD.01 24-Apr-2013

 ----------------------
 #B1B95/STO-3G opt freq
 ----------------------

 -------------------------------------------------------------------
 1H-tetrazole CH2N4 casno=288948 state=1 config=1 method=55 basis=20
 -------------------------------------------------------------------
 Symbolic Z-matrix:
 Charge =  0 Multiplicity = 1

 SCF Done:  E(RB1B95) =  -254.801610050     A.U. after   14 cycles
 SCF Done:  E(RB1B95) =  -254.844583336     A.U. after   14 cycles
 SCF Done:  E(RB1B95) =  -254.846722057     A.U. after   13 cycles
 SCF Done:  E(RB1B95) =  -254.846785744     A.U. after   13 cycles
 SCF Done:  E(RB1B95) =  -254.846893099     A.U. after   10 cycles
 SCF Done:  E(RB1B95) =  -254.846893645     A.U. after    8 cycles
 Optimization completed.
    -- Stationary point found.
 Normal termination of Gaussian 09 at Mon Dec 16 15:34:23 2013.

 ------------------------------------------------------------------
 #N Geom=AllCheck Guess=TCheck SCRF=Check GenChk RB1B95/STO-3G Freq
 ------------------------------------------------------------------

 Structure from the checkpoint file:  "/tmp/rdj3/g09-18029/Gau-3670.chk"
 -------------------------------------------------------------------
 1H-tetrazole CH2N4 casno=288948 state=1 config=1 method=55 basis=20
 -------------------------------------------------------------------
 Charge =  0 Multiplicity = 1

                         Standard orientation:
 ---------------------------------------------------------------------
 Center     Atomic      Atomic             Coordinates (Angstroms)
 Number     Number       Type             X           Y           Z
 ---------------------------------------------------------------------
      1          6           0        1.097421    0.253449    0.000000
      2          7           0        0.000000    1.093408    0.000000
      3          7           0       -1.186544    0.313242    0.000000
      4          7           0       -0.747386   -0.976418    0.000000
      5          7           0        0.694029   -1.040723    0.000000
      6          1           0        2.131631    0.614603    0.000000
      7          1           0       -0.036847    2.138143    0.000000
 ---------------------------------------------------------------------

 SCF Done:  E(RB1B95) =  -254.846893645     A.U. after    1 cycles

 The electronic state is 1-A'.
 Alpha  occ. eigenvalues --  -14.40316 -14.33783 -14.30875 -14.28530 -10.20479
 Alpha  occ. eigenvalues --   -1.08878  -0.90729  -0.86193  -0.63980  -0.62024
 Alpha  occ. eigenvalues --   -0.55418  -0.44827  -0.43123  -0.31137  -0.26395
 Alpha  occ. eigenvalues --   -0.25249  -0.24519  -0.22956
 Alpha virt. eigenvalues --    0.05681   0.10220   0.23706   0.26311   0.36072
 Alpha virt. eigenvalues --    0.37348   0.39352   0.53674   0.59400

 Mulliken charges:
               1
     1  C    0.070506
     2  N   -0.202922
     3  N   -0.043927
     4  N   -0.065618
     5  N   -0.154581
     6  H    0.130851
     7  H    0.265690
 Sum of Mulliken charges =   0.00000

 Dipole moment (field-independent basis, Debye):
    X=              2.1410    Y=              4.4408    Z=              0.0000  Tot=              4.9300
 Quadrupole moment (field-independent basis, Debye-Ang):
   XX=            -27.4151   YY=            -24.6779   ZZ=            -25.9071
   XY=              1.7621   XZ=              0.0000   YZ=              0.0000

  Exact polarizability:  24.439   1.191  25.300   0.000   0.000   6.173
 Approx polarizability:  51.152  -0.863  59.208   0.000   0.000   7.440

                      1                      2                      3
                     A"                     A"                     A"
 Frequencies --    501.0731               648.6088               663.9991
 Red. masses --      1.9606                 2.0247                 7.2158
 Frc consts  --      0.2900                 0.5019                 1.8744
 IR Inten    --     82.3808                16.0923                 9.6961

                      4                      5                      6
                     A"                     A'                     A'
 Frequencies --    850.6712               925.2610               967.9529
 Red. masses --      1.2646                 5.6567                 5.9607
 Frc consts  --      0.5392                 2.8533                 3.2904
 IR Inten    --     10.7007                 0.9648                 0.2638

                      7                      8                      9
                     A'                     A'                     A'
 Frequencies --   1040.9174              1053.1534              1143.3870
 Red. masses --      3.9776                 3.7719                 1.4944
 Frc consts  --      2.5393                 2.4649                 1.1511
 IR Inten    --     17.4981                18.0461                 7.5145

                     10                     11                     12
                     A'                     A'                     A'
 Frequencies --   1250.6714              1266.7175              1486.5535
 Red. masses --      8.8783                 2.9763                 3.7182
 Frc consts  --      8.1821                 2.8137                 4.8411
 IR Inten    --      0.1921                 1.9342                16.7056

                     13                     14                     15
                     A'                     A'                     A'
 Frequencies --   1527.0777              3532.4822              3767.1845
 Red. masses --      3.6797                 1.1018                 1.0869
 Frc consts  --      5.0558                 8.1006                 9.0879
 IR Inten    --     30.3625                39.1223                94.4901

 - Thermochemistry -
 -------------------
 Temperature   298.150 Kelvin.  Pressure   1.00000 Atm.
 Atom     1 has atomic number  6 and mass  12.00000

 Molecular mass:    70.02795 amu.
 Principal axes and moments of inertia in atomic units:
                           1         2         3
     Eigenvalues --   185.68020 191.19993 376.88013
           X            0.90169   0.43239   0.00000
           Y           -0.43239   0.90169   0.00000
           Z            0.00000   0.00000   1.00000
 This molecule is an asymmetric top.
 Rotational symmetry number  1.
 Rotational temperatures (Kelvin)      0.46647     0.45300     0.22982
 Rotational constants (GHZ):           9.71962     9.43903     4.78863
 Zero-point vibrational energy     123369.1 (Joules/Mol)
                                   29.48593 (Kcal/Mol)
 Warning -- explicit consideration of   1 degrees of freedom as
           vibrations may cause significant error
 Vibrational temperatures:    720.93   933.20   955.35  1223.92  1331.24
          (Kelvin)           1392.67  1497.65  1515.25  1645.08  1799.44
                             1822.52  2138.82  2197.12  5082.45  5420.13

 Zero-point correction=                           0.046989 (Hartree/Particle)
 Thermal correction to Energy=                    0.050582
 Thermal correction to Enthalpy=                  0.051526
 Thermal correction to Gibbs Free Energy=         0.020718
 Sum of electronic and zero-point Energies=           -254.799905
 Sum of electronic and thermal Energies=              -254.796312
 Sum of electronic and thermal Enthalpies=            -254.795367
 Sum of electronic and thermal Free Energies=         -254.826175

                     E (Thermal)             CV                S
                      KCal/Mol        Cal/Mol-Kelvin    Cal/Mol-Kelvin
 Total                   31.741             11.878             64.841
 Electronic               0.000              0.000              0.000
 Translational            0.889              2.981             38.656
 Rotational               0.889              2.981             24.107
 Vibrational             29.963              5.917              2.078
 Vibration     1          0.856              1.248              0.655

 Optimization completed.
    -- Stationary point found.
 Normal termination of Gaussian 09 at Mon Dec 16 15:34:27 2013.
