 Gaussian 09, Revision D.01,
 Gaussian 09:  EM64L-G09RevD.01 24-Apr-2013

 ------------------------------------
 #B1B95/6-311G(d,p) opt=z-matrix freq
 ------------------------------------

 -------------------------------------------------------------------
 1H-tetrazole CH2N4 casno=288948 state=1 config=1 method=55 basis=21
 -------------------------------------------------------------------
 Symbolic Z-matrix:
 Charge =  0 Multiplicity = 1

 SCF Done:  E(RB1B95) =  -258.223216136     A.U. after   15 cycles
 SCF Done:  E(RB1B95) =  -258.224674099     A.U. after   12 cycles
 SCF Done:  E(RB1B95) =  -258.224709958     A.U. after   11 cycles
 SCF Done:  E(RB1B95) =  -258.224715828     A.U. after   11 cycles
 SCF Done:  E(RB1B95) =  -258.224720753     A.U. after    9 cycles
 SCF Done:  E(RB1B95) =  -258.224429321     A.U. after   12 cycles
 SCF Done:  E(RB1B95) =  -258.224721130     A.U. after    9 cycles
 SCF Done:  E(RB1B95) =  -258.224720336     A.U. after    9 cycles
 SCF Done:  E(RB1B95) =  -258.224720728     A.U. after    5 cycles
 SCF Done:  E(RB1B95) =  -258.224720929     A.U. after    5 cycles
 SCF Done:  E(RB1B95) =  -258.224721035     A.U. after    4 cycles
 SCF Done:  E(RB1B95) =  -258.224721240     A.U. after    7 cycles
 Optimization completed.
    -- Stationary point found.
 Normal termination of Gaussian 09 at Mon Nov 25 20:12:53 2013.

 ----------------------------------------------------------------------
 #N Geom=AllCheck Guess=TCheck SCRF=Check GenChk RB1B95/6-311G(d,p) Fre
 q
 ----------------------------------------------------------------------

 Structure from the checkpoint file:  "/tmp/rdj3/g09-23219/Gau-3841.chk"
 -------------------------------------------------------------------
 1H-tetrazole CH2N4 casno=288948 state=1 config=1 method=55 basis=21
 -------------------------------------------------------------------
 Charge =  0 Multiplicity = 1

                         Standard orientation:
 ---------------------------------------------------------------------
 Center     Atomic      Atomic             Coordinates (Angstroms)
 Number     Number       Type             X           Y           Z
 ---------------------------------------------------------------------
      1          6           0        1.060789    0.230421    0.000000
      2          7           0        0.000000    1.046320    0.000000
      3          7           0       -1.109848    0.301228    0.000000
      4          7           0       -0.717790   -0.915786    0.000000
      5          7           0        0.628957   -1.001115    0.000000
      6          1           0        2.086284    0.553107    0.000000
      7          1           0       -0.060253    2.049842    0.000000
 ---------------------------------------------------------------------

 SCF Done:  E(RB1B95) =  -258.224721240     A.U. after    1 cycles

 The electronic state is 1-A'.
 Alpha  occ. eigenvalues --  -14.54920 -14.51260 -14.49408 -14.46532 -10.36198
 Alpha  occ. eigenvalues --   -1.18846  -0.98271  -0.92773  -0.70711  -0.69279
 Alpha  occ. eigenvalues --   -0.62254  -0.52630  -0.51999  -0.40223  -0.35237
 Alpha  occ. eigenvalues --   -0.32909  -0.32340  -0.30787
 Alpha virt. eigenvalues --   -0.00954   0.02896   0.03876   0.08198   0.18823
 Alpha virt. eigenvalues --    0.20155   0.23485   0.29558   0.34551   0.40283
 Alpha virt. eigenvalues --    0.42762   0.44989   0.50897   0.56505   0.57471

 Mulliken charges:
               1
     1  C    0.238720
     2  N   -0.297039
     3  N   -0.026112
     4  N   -0.087471
     5  N   -0.247164
     6  H    0.154978
     7  H    0.264089
 Sum of Mulliken charges =   0.00000

 Dipole moment (field-independent basis, Debye):
    X=              2.4945    Y=              4.7748    Z=              0.0000  Tot=              5.3872
 Quadrupole moment (field-independent basis, Debye-Ang):
   XX=            -28.6861   YY=            -26.2257   ZZ=            -28.1143
   XY=              1.7807   XZ=              0.0000   YZ=              0.0000

  Exact polarizability:  38.305   0.955  37.730   0.000   0.000  17.611
 Approx polarizability:  61.666   0.482  65.115   0.000   0.000  25.396

                      1                      2                      3
                     A"                     A"                     A"
 Frequencies --    629.6667               706.8112               751.9764
 Red. masses --      2.0991                 1.7312                 6.9255
 Frc consts  --      0.4903                 0.5096                 2.3073
 IR Inten    --     76.1749                17.4864                11.3776

                      4                      5                      6
                     A"                     A'                     A'
 Frequencies --    878.2745               990.6161              1026.0906
 Red. masses --      1.3711                 4.2325                 5.7018
 Frc consts  --      0.6231                 2.4471                 3.5370
 IR Inten    --     16.7871                 3.6587                 1.3190

                      7                      8                      9
                     A'                     A'                     A'
 Frequencies --   1086.3172              1100.5371              1163.2819
 Red. masses --      3.4624                 4.0396                 2.0341
 Frc consts  --      2.4074                 2.8827                 1.6218
 IR Inten    --     24.3341                25.2837                12.6944

                     10                     11                     12
                     A'                     A'                     A'
 Frequencies --   1293.6471              1340.4525              1490.5807
 Red. masses --      2.4929                 9.7840                 3.3902
 Frc consts  --      2.4580                10.3578                 4.4380
 IR Inten    --      1.3215                17.7651                 9.3189

                     13                     14                     15
                     A'                     A'                     A'
 Frequencies --   1544.2207              3308.6046              3695.0168
 Red. masses --      3.6213                 1.1017                 1.0840
 Frc consts  --      5.0878                 7.1054                 8.7199
 IR Inten    --     16.8891                 1.4234               100.7798

 - Thermochemistry -
 -------------------
 Temperature   298.150 Kelvin.  Pressure   1.00000 Atm.
 Atom     1 has atomic number  6 and mass  12.00000

 Molecular mass:    70.02795 amu.
 Principal axes and moments of inertia in atomic units:
                           1         2         3
     Eigenvalues --   168.59951 171.73102 340.33053
           X            0.84463   0.53535   0.00000
           Y           -0.53535   0.84463   0.00000
           Z            0.00000   0.00000   1.00000
 This molecule is an asymmetric top.
 Rotational symmetry number  1.
 Rotational temperatures (Kelvin)      0.51373     0.50436     0.25450
 Rotational constants (GHZ):          10.70431    10.50912     5.30291
 Zero-point vibrational energy     125644.3 (Joules/Mol)
                                   30.02972 (Kcal/Mol)
 Vibrational temperatures:    905.95  1016.94  1081.92  1263.64  1425.27
          (Kelvin)           1476.31  1562.97  1583.43  1673.70  1861.27
                             1928.61  2144.61  2221.79  4760.34  5316.30

 Zero-point correction=                           0.047855 (Hartree/Particle)
 Thermal correction to Energy=                    0.051267
 Thermal correction to Enthalpy=                  0.052211
 Thermal correction to Gibbs Free Energy=         0.021806
 Sum of electronic and zero-point Energies=           -258.176866
 Sum of electronic and thermal Energies=              -258.173455
 Sum of electronic and thermal Enthalpies=            -258.172510
 Sum of electronic and thermal Free Energies=         -258.202915

                     E (Thermal)             CV                S
                      KCal/Mol        Cal/Mol-Kelvin    Cal/Mol-Kelvin
 Total                   32.170             10.972             63.992
 Electronic               0.000              0.000              0.000
 Translational            0.889              2.981             38.656
 Rotational               0.889              2.981             23.803
 Vibrational             30.393              5.010              1.533

 Normal termination of Gaussian 09 at Mon Nov 25 20:13:10 2013.
