 Gaussian 09, Revision D.01,
 Gaussian 09:  EM64L-G09RevD.01 24-Apr-2013

 ------------------------------
 #B1B95/6-31G opt=z-matrix freq
 ------------------------------

 ------------------------------------------------------------------
 1H-tetrazole CH2N4 casno=288948 state=1 config=1 method=55 basis=9
 ------------------------------------------------------------------
 Symbolic Z-matrix:
 Charge =  0 Multiplicity = 1

 SCF Done:  E(RB1B95) =  -258.028647996     A.U. after   14 cycles
 SCF Done:  E(RB1B95) =  -258.038060536     A.U. after   14 cycles
 SCF Done:  E(RB1B95) =  -258.038290353     A.U. after   14 cycles
 SCF Done:  E(RB1B95) =  -258.036844920     A.U. after   13 cycles
 SCF Done:  E(RB1B95) =  -258.038413752     A.U. after   12 cycles
 SCF Done:  E(RB1B95) =  -258.038458052     A.U. after   10 cycles
 SCF Done:  E(RB1B95) =  -258.038018554     A.U. after   13 cycles
 SCF Done:  E(RB1B95) =  -258.038460353     A.U. after   10 cycles
 SCF Done:  E(RB1B95) =  -258.038466824     A.U. after    9 cycles
 SCF Done:  E(RB1B95) =  -258.038292283     A.U. after   13 cycles
 SCF Done:  E(RB1B95) =  -258.038469628     A.U. after   10 cycles
 SCF Done:  E(RB1B95) =  -258.038469676     A.U. after   11 cycles
 SCF Done:  E(RB1B95) =  -258.038469248     A.U. after   12 cycles
 SCF Done:  E(RB1B95) =  -258.038470261     A.U. after    9 cycles
 SCF Done:  E(RB1B95) =  -258.038470127     A.U. after    7 cycles
 SCF Done:  E(RB1B95) =  -258.038469982     A.U. after   12 cycles
 SCF Done:  E(RB1B95) =  -258.038470358     A.U. after    5 cycles
 SCF Done:  E(RB1B95) =  -258.038470326     A.U. after    7 cycles
 Optimization completed.
    -- Stationary point found.
 Normal termination of Gaussian 09 at Mon Nov 25 20:26:26 2013.

 -----------------------------------------------------------------
 #N Geom=AllCheck Guess=TCheck SCRF=Check GenChk RB1B95/6-31G Freq
 -----------------------------------------------------------------

 Structure from the checkpoint file:  "/tmp/rdj3/g09-23219/Gau-18503.chk"
 ------------------------------------------------------------------
 1H-tetrazole CH2N4 casno=288948 state=1 config=1 method=55 basis=9
 ------------------------------------------------------------------
 Charge =  0 Multiplicity = 1

                         Standard orientation:
 ---------------------------------------------------------------------
 Center     Atomic      Atomic             Coordinates (Angstroms)
 Number     Number       Type             X           Y           Z
 ---------------------------------------------------------------------
      1          6           0        1.078267    0.249970    0.000000
      2          7           0        0.000000    1.064451    0.000000
      3          7           0       -1.140488    0.297329    0.000000
      4          7           0       -0.732516   -0.944581    0.000000
      5          7           0        0.658010   -1.008184    0.000000
      6          1           0        2.100716    0.571341    0.000000
      7          1           0       -0.065358    2.065736    0.000000
 ---------------------------------------------------------------------

 SCF Done:  E(RB1B95) =  -258.038470326     A.U. after    1 cycles

 The electronic state is 1-A'.
 Alpha  occ. eigenvalues --  -14.57807 -14.55521 -14.53535 -14.50659 -10.39419
 Alpha  occ. eigenvalues --   -1.20755  -0.99632  -0.95291  -0.71759  -0.70347
 Alpha  occ. eigenvalues --   -0.63237  -0.52874  -0.52727  -0.39751  -0.35818
 Alpha  occ. eigenvalues --   -0.33901  -0.32394  -0.31257
 Alpha virt. eigenvalues --   -0.02854   0.01135   0.07164   0.11311   0.17296
 Alpha virt. eigenvalues --    0.19878   0.26171   0.32004   0.39926   0.53412
 Alpha virt. eigenvalues --    0.55572   0.62989   0.66576   0.67766   0.68706

 Mulliken charges:
               1
     1  C    0.310158
     2  N   -0.584672
     3  N    0.024899
     4  N   -0.092037
     5  N   -0.297779
     6  H    0.246398
     7  H    0.393032
 Sum of Mulliken charges =   0.00000

 Dipole moment (field-independent basis, Debye):
    X=              2.7487    Y=              5.1695    Z=              0.0000  Tot=              5.8548
 Quadrupole moment (field-independent basis, Debye-Ang):
   XX=            -29.6118   YY=            -27.2044   ZZ=            -28.5806
   XY=              2.0377   XZ=              0.0000   YZ=              0.0000

  Exact polarizability:  37.216   1.046  36.725   0.000   0.000  13.885
 Approx polarizability:  62.333  -0.064  67.142   0.000   0.000  17.187

                      1                      2                      3
                     A"                     A"                     A"
 Frequencies --    678.5849               724.2886               758.3819
 Red. masses --      3.9615                12.3151                 1.1330
 Frc consts  --      1.0748                 3.8064                 0.3839
 IR Inten    --      8.7364                 0.8443               167.2232

                      4                      5                      6
                     A'                     A"                     A'
 Frequencies --    890.6627               894.9082               971.0624
 Red. masses --      8.0039                 1.3966                 5.5246
 Frc consts  --      3.7409                 0.6590                 3.0693
 IR Inten    --      8.0189                13.3160                16.7317

                      7                      8                      9
                     A'                     A'                     A'
 Frequencies --   1016.7066              1045.0208              1162.1232
 Red. masses --      7.2653                 4.7467                 1.9467
 Frc consts  --      4.4248                 3.0541                 1.5490
 IR Inten    --      5.6553                14.4203                14.1602

                     10                     11                     12
                     A'                     A'                     A'
 Frequencies --   1223.4158              1267.1311              1438.6730
 Red. masses --      4.0609                 2.9279                 3.1908
 Frc consts  --      3.5811                 2.7698                 3.8911
 IR Inten    --     12.6504                 1.3457                 4.8068

                     13                     14                     15
                     A'                     A'                     A'
 Frequencies --   1509.0090              3388.1219              3751.5602
 Red. masses --      2.2280                 1.1030                 1.0848
 Frc consts  --      2.9891                 7.4600                 8.9954
 IR Inten    --     38.7651                 5.3354               114.0198

 - Thermochemistry -
 -------------------
 Temperature   298.150 Kelvin.  Pressure   1.00000 Atm.
 Atom     1 has atomic number  6 and mass  12.00000

 Molecular mass:    70.02795 amu.
 Principal axes and moments of inertia in atomic units:
                           1         2         3
     Eigenvalues --   175.33874 179.08603 354.42477
           X            0.99372   0.11189   0.00000
           Y           -0.11189   0.99372   0.00000
           Z            0.00000   0.00000   1.00000
 This molecule is an asymmetric top.
 Rotational symmetry number  1.
 Rotational temperatures (Kelvin)      0.49398     0.48364     0.24438
 Rotational constants (GHZ):          10.29288    10.07751     5.09203
 Zero-point vibrational energy     123931.0 (Joules/Mol)
                                   29.62023 (Kcal/Mol)
 Vibrational temperatures:    976.33  1042.09  1091.14  1281.46  1287.57
          (Kelvin)           1397.14  1462.81  1503.55  1672.03  1760.22
                             1823.12  2069.93  2171.12  4874.75  5397.65

 Zero-point correction=                           0.047203 (Hartree/Particle)
 Thermal correction to Energy=                    0.050628
 Thermal correction to Enthalpy=                  0.051572
 Thermal correction to Gibbs Free Energy=         0.021098
 Sum of electronic and zero-point Energies=           -257.991267
 Sum of electronic and thermal Energies=              -257.987843
 Sum of electronic and thermal Enthalpies=            -257.986898
 Sum of electronic and thermal Free Energies=         -258.017372

                     E (Thermal)             CV                S
                      KCal/Mol        Cal/Mol-Kelvin    Cal/Mol-Kelvin
 Total                   31.769             11.209             64.137
 Electronic               0.000              0.000              0.000
 Translational            0.889              2.981             38.656
 Rotational               0.889              2.981             23.924
 Vibrational             29.992              5.247              1.557

 Normal termination of Gaussian 09 at Mon Nov 25 20:26:31 2013.
