 Gaussian 09, Revision D.01,
 Gaussian 09:  EM64L-G09RevD.01 24-Apr-2013

 ---------------------------
 #B1B95/aug-cc-pVTZ opt freq
 ---------------------------

 -------------------------------------------------------------------
 1H-tetrazole CH2N4 casno=288948 state=1 config=1 method=55 basis=18
 -------------------------------------------------------------------
 Symbolic Z-matrix:
 Charge =  0 Multiplicity = 1

 SCF Done:  E(RB1B95) =  -258.256847796     A.U. after   12 cycles
 SCF Done:  E(RB1B95) =  -258.257950218     A.U. after   10 cycles
 SCF Done:  E(RB1B95) =  -258.257993045     A.U. after    9 cycles
 SCF Done:  E(RB1B95) =  -258.258001625     A.U. after    9 cycles
 SCF Done:  E(RB1B95) =  -258.258004665     A.U. after    8 cycles
 Optimization completed.
    -- Stationary point found.
 Normal termination of Gaussian 09 at Mon Dec 16 15:29:08 2013.

 ----------------------------------------------------------------------
 #N Geom=AllCheck Guess=TCheck SCRF=Check GenChk RB1B95/Aug-CC-pVTZ Fre
 q
 ----------------------------------------------------------------------

 Structure from the checkpoint file:  "/tmp/rdj3/g09-18029/Gau-3070.chk"
 -------------------------------------------------------------------
 1H-tetrazole CH2N4 casno=288948 state=1 config=1 method=55 basis=18
 -------------------------------------------------------------------
 Charge =  0 Multiplicity = 1

                         Standard orientation:
 ---------------------------------------------------------------------
 Center     Atomic      Atomic             Coordinates (Angstroms)
 Number     Number       Type             X           Y           Z
 ---------------------------------------------------------------------
      1          6           0        1.058639    0.231817    0.000000
      2          7           0        0.000000    1.044050    0.000000
      3          7           0       -1.107376    0.300786    0.000000
      4          7           0       -0.717294   -0.915849    0.000000
      5          7           0        0.628191   -0.999222    0.000000
      6          1           0        2.082332    0.555030    0.000000
      7          1           0       -0.058818    2.045712    0.000000
 ---------------------------------------------------------------------

 SCF Done:  E(RB1B95) =  -258.258004665     A.U. after    1 cycles

 The electronic state is 1-A'.
 Alpha  occ. eigenvalues --  -14.55738 -14.52383 -14.50700 -14.47662 -10.36735
 Alpha  occ. eigenvalues --   -1.18972  -0.98499  -0.92943  -0.70950  -0.69598
 Alpha  occ. eigenvalues --   -0.62492  -0.53144  -0.52225  -0.40732  -0.35680
 Alpha  occ. eigenvalues --   -0.33260  -0.32865  -0.31429
 Alpha virt. eigenvalues --   -0.01634  -0.01579   0.01242   0.01593   0.04151
 Alpha virt. eigenvalues --    0.04630   0.06144   0.06954   0.07688   0.08754
 Alpha virt. eigenvalues --    0.09319   0.10042   0.11624   0.12994   0.13924

 Mulliken charges:
               1
     1  C   -0.222227
     2  N    0.181835
     3  N   -0.282663
     4  N   -0.162349
     5  N   -0.277526
     6  H    0.602153
     7  H    0.160778
 Sum of Mulliken charges =   0.00000

 Dipole moment (field-independent basis, Debye):
    X=              2.4863    Y=              4.7144    Z=              0.0000  Tot=              5.3298
 Quadrupole moment (field-independent basis, Debye-Ang):
   XX=            -28.9861   YY=            -26.4725   ZZ=            -28.4509
   XY=              1.8376   XZ=              0.0000   YZ=              0.0000

  Exact polarizability:  44.805   0.515  44.277   0.000   0.000  25.995
 Approx polarizability:  68.550   0.400  71.621   0.000   0.000  36.635

                      1                      2                      3
                     A"                     A"                     A"
 Frequencies --    619.5427               702.6840               754.3117
 Red. masses --      1.7877                 1.9136                 8.0250
 Frc consts  --      0.4043                 0.5567                 2.6903
 IR Inten    --     76.5511                 9.2637                 8.2785

                      4                      5                      6
                     A"                     A'                     A'
 Frequencies --    881.3179               987.7067              1023.4986
 Red. masses --      1.3864                 4.3572                 5.9059
 Frc consts  --      0.6345                 2.5044                 3.6451
 IR Inten    --     15.6964                 2.8370                 1.0902

                      7                      8                      9
                     A'                     A'                     A'
 Frequencies --   1084.7749              1091.9233              1160.0060
 Red. masses --      3.7083                 3.8281                 1.9727
 Frc consts  --      2.5710                 2.6891                 1.5640
 IR Inten    --     18.6791                28.1490                12.1077

                     10                     11                     12
                     A'                     A'                     A'
 Frequencies --   1289.0286              1331.3203              1484.6829
 Red. masses --      2.4200                10.7826                 3.3362
 Frc consts  --      2.3692                11.2601                 4.3328
 IR Inten    --      1.7563                12.8482                 9.4231

                     13                     14                     15
                     A'                     A'                     A'
 Frequencies --   1534.7047              3303.4464              3684.1543
 Red. masses --      3.6790                 1.1018                 1.0840
 Frc consts  --      5.1053                 7.0838                 8.6684
 IR Inten    --     16.9566                 1.5376                97.3321

 - Thermochemistry -
 -------------------
 Temperature   298.150 Kelvin.  Pressure   1.00000 Atm.
 Atom     1 has atomic number  6 and mass  12.00000

 Molecular mass:    70.02795 amu.
 Principal axes and moments of inertia in atomic units:
                           1         2         3
     Eigenvalues --   168.27696 170.98183 339.25879
           X            0.84776   0.53038   0.00000
           Y           -0.53038   0.84776   0.00000
           Z            0.00000   0.00000   1.00000
 This molecule is an asymmetric top.
 Rotational symmetry number  1.
 Rotational temperatures (Kelvin)      0.51471     0.50657     0.25530
 Rotational constants (GHZ):          10.72483    10.55516     5.31966
 Zero-point vibrational energy     125207.8 (Joules/Mol)
                                   29.92537 (Kcal/Mol)
 Warning -- explicit consideration of   1 degrees of freedom as
           vibrations may cause significant error
 Vibrational temperatures:    891.38  1011.00  1085.28  1268.02  1421.09
          (Kelvin)           1472.58  1560.75  1571.03  1668.99  1854.62
                             1915.47  2136.12  2208.10  4752.92  5300.67

 Zero-point correction=                           0.047689 (Hartree/Particle)
 Thermal correction to Energy=                    0.051109
 Thermal correction to Enthalpy=                  0.052053
 Thermal correction to Gibbs Free Energy=         0.021641
 Sum of electronic and zero-point Energies=           -258.210316
 Sum of electronic and thermal Energies=              -258.206896
 Sum of electronic and thermal Enthalpies=            -258.205952
 Sum of electronic and thermal Free Energies=         -258.236364

                     E (Thermal)             CV                S
                      KCal/Mol        Cal/Mol-Kelvin    Cal/Mol-Kelvin
 Total                   32.071             11.019             64.007
 Electronic               0.000              0.000              0.000
 Translational            0.889              2.981             38.656
 Rotational               0.889              2.981             23.794
 Vibrational             30.294              5.058              1.557
 Vibration     1          0.980              0.991              0.417

 Optimization completed.
    -- Stationary point found.
 Normal termination of Gaussian 09 at Mon Dec 16 15:34:12 2013.
