 Gaussian 09, Revision D.01,
 Gaussian 09:  EM64L-G09RevD.01 24-Apr-2013

 -----------------------
 #B1B95/cc-pVDZ opt freq
 -----------------------

 ------------------------------------------------------------------
 1H-tetrazole CH2N4 casno=288948 state=1 config=1 method=55 basis=5
 ------------------------------------------------------------------
 Symbolic Z-matrix:
 Charge =  0 Multiplicity = 1

 SCF Done:  E(RB1B95) =  -258.185573347     A.U. after   15 cycles
 SCF Done:  E(RB1B95) =  -258.187792662     A.U. after   12 cycles
 SCF Done:  E(RB1B95) =  -258.187843827     A.U. after   10 cycles
 SCF Done:  E(RB1B95) =  -258.187859192     A.U. after    9 cycles
 SCF Done:  E(RB1B95) =  -258.187861612     A.U. after    9 cycles
 Optimization completed.
    -- Stationary point found.
 Normal termination of Gaussian 09 at Mon Dec 16 15:35:35 2013.

 -------------------------------------------------------------------
 #N Geom=AllCheck Guess=TCheck SCRF=Check GenChk RB1B95/CC-pVDZ Freq
 -------------------------------------------------------------------

 Structure from the checkpoint file:  "/tmp/rdj3/g09-18029/Gau-5826.chk"
 ------------------------------------------------------------------
 1H-tetrazole CH2N4 casno=288948 state=1 config=1 method=55 basis=5
 ------------------------------------------------------------------
 Charge =  0 Multiplicity = 1

                         Standard orientation:
 ---------------------------------------------------------------------
 Center     Atomic      Atomic             Coordinates (Angstroms)
 Number     Number       Type             X           Y           Z
 ---------------------------------------------------------------------
      1          6           0        1.061858    0.230231    0.000000
      2          7           0        0.000000    1.048374    0.000000
      3          7           0       -1.110428    0.304005    0.000000
      4          7           0       -0.719184   -0.917413    0.000000
      5          7           0        0.628105   -1.005726    0.000000
      6          1           0        2.094939    0.556375    0.000000
      7          1           0       -0.055544    2.057560    0.000000
 ---------------------------------------------------------------------

 SCF Done:  E(RB1B95) =  -258.187861612     A.U. after    1 cycles

 The electronic state is 1-A'.
 Alpha  occ. eigenvalues --  -14.56099 -14.52199 -14.50382 -14.47672 -10.37211
 Alpha  occ. eigenvalues --   -1.18133  -0.97754  -0.92094  -0.70071  -0.68688
 Alpha  occ. eigenvalues --   -0.61474  -0.52016  -0.51283  -0.39571  -0.34670
 Alpha  occ. eigenvalues --   -0.32249  -0.31748  -0.30215
 Alpha virt. eigenvalues --   -0.00357   0.03476   0.05490   0.09923   0.20299
 Alpha virt. eigenvalues --    0.21311   0.28145   0.31509   0.40563   0.46263
 Alpha virt. eigenvalues --    0.47715   0.55636   0.58913   0.60346   0.67550

 Mulliken charges:
               1
     1  C    0.218224
     2  N   -0.058203
     3  N   -0.068369
     4  N   -0.089014
     5  N   -0.194162
     6  H    0.060952
     7  H    0.130572
 Sum of Mulliken charges =   0.00000

 Dipole moment (field-independent basis, Debye):
    X=              2.4027    Y=              4.6608    Z=              0.0000  Tot=              5.2436
 Quadrupole moment (field-independent basis, Debye-Ang):
   XX=            -28.4298   YY=            -25.8304   ZZ=            -27.8476
   XY=              1.7120   XZ=              0.0000   YZ=              0.0000

  Exact polarizability:  37.325   1.087  36.408   0.000   0.000  16.053
 Approx polarizability:  61.339   0.588  64.311   0.000   0.000  23.654

                      1                      2                      3
                     A"                     A"                     A"
 Frequencies --    605.4792               701.5123               753.0706
 Red. masses --      1.8116                 1.9412                 7.5042
 Frc consts  --      0.3913                 0.5628                 2.5074
 IR Inten    --     74.3935                 8.6954                 9.1366

                      4                      5                      6
                     A"                     A'                     A'
 Frequencies --    864.7010               986.0020              1021.4726
 Red. masses --      1.3763                 3.7683                 5.0142
 Frc consts  --      0.6063                 2.1585                 3.0825
 IR Inten    --     16.6849                 2.9750                 2.5044

                      7                      8                      9
                     A'                     A'                     A'
 Frequencies --   1089.0296              1107.4518              1157.4549
 Red. masses --      2.5658                 4.5621                 2.2063
 Frc consts  --      1.7929                 3.2966                 1.7415
 IR Inten    --     34.0103                17.0097                10.5459

                     10                     11                     12
                     A'                     A'                     A'
 Frequencies --   1288.1138              1345.5958              1493.4223
 Red. masses --      2.6439                10.1965                 3.4894
 Frc consts  --      2.5846                10.8775                 4.5852
 IR Inten    --      1.5245                16.0010                 8.4828

                     13                     14                     15
                     A'                     A'                     A'
 Frequencies --   1541.1891              3318.4447              3675.9230
 Red. masses --      4.4421                 1.1022                 1.0850
 Frc consts  --      6.2166                 7.1513                 8.6376
 IR Inten    --     14.4796                 1.8966               102.5899

 - Thermochemistry -
 -------------------
 Temperature   298.150 Kelvin.  Pressure   1.00000 Atm.
 Atom     1 has atomic number  6 and mass  12.00000

 Molecular mass:    70.02795 amu.
 Principal axes and moments of inertia in atomic units:
                           1         2         3
     Eigenvalues --   169.32926 172.36647 341.69573
           X            0.77792   0.62836   0.00000
           Y           -0.62836   0.77792   0.00000
           Z            0.00000   0.00000   1.00000
 This molecule is an asymmetric top.
 Rotational symmetry number  1.
 Rotational temperatures (Kelvin)      0.51151     0.50250     0.25348
 Rotational constants (GHZ):          10.65818    10.47037     5.28172
 Zero-point vibrational energy     125302.0 (Joules/Mol)
                                   29.94790 (Kcal/Mol)
 Warning -- explicit consideration of   1 degrees of freedom as
           vibrations may cause significant error
 Vibrational temperatures:    871.15  1009.32  1083.50  1244.11  1418.64
          (Kelvin)           1469.67  1566.87  1593.37  1665.32  1853.31
                             1936.01  2148.70  2217.42  4774.50  5288.83

 Zero-point correction=                           0.047725 (Hartree/Particle)
 Thermal correction to Energy=                    0.051154
 Thermal correction to Enthalpy=                  0.052099
 Thermal correction to Gibbs Free Energy=         0.021662
 Sum of electronic and zero-point Energies=           -258.140137
 Sum of electronic and thermal Energies=              -258.136707
 Sum of electronic and thermal Enthalpies=            -258.135763
 Sum of electronic and thermal Free Energies=         -258.166199

                     E (Thermal)             CV                S
                      KCal/Mol        Cal/Mol-Kelvin    Cal/Mol-Kelvin
 Total                   32.100             11.057             64.059
 Electronic               0.000              0.000              0.000
 Translational            0.889              2.981             38.656
 Rotational               0.889              2.981             23.815
 Vibrational             30.322              5.095              1.587
 Vibration     1          0.964              1.020              0.440

 Optimization completed.
    -- Stationary point found.
 Normal termination of Gaussian 09 at Mon Dec 16 15:35:45 2013.
