 Gaussian 09, Revision D.01,
 Gaussian 09:  EM64L-G09RevD.01 24-Apr-2013

 -----------------------------------------
 #B2PLYP/6-31G** opt=z-matrix freq density
 -----------------------------------------

 ------------------------------------------------------------------
 1H-tetrazole CH2N4 casno=288948 state=1 config=1 method=56 basis=3
 ------------------------------------------------------------------
 Symbolic Z-matrix:
 Charge =  0 Multiplicity = 1

 SCF Done:  E(RB2PLYP) =  -257.752238543     A.U. after   14 cycles
 E2(B2PLYP) =    -0.2612593251D+00 E(B2PLYP) =    -0.25801349786781D+03
 SCF Done:  E(RB2PLYP) =  -257.752202273     A.U. after   12 cycles
 E2(B2PLYP) =    -0.2664193526D+00 E(B2PLYP) =    -0.25801862162537D+03
 SCF Done:  E(RB2PLYP) =  -257.751691562     A.U. after   11 cycles
 E2(B2PLYP) =    -0.2670646285D+00 E(B2PLYP) =    -0.25801875619025D+03
 SCF Done:  E(RB2PLYP) =  -257.751615001     A.U. after   11 cycles
 E2(B2PLYP) =    -0.2671251621D+00 E(B2PLYP) =    -0.25801874016272D+03
 SCF Done:  E(RB2PLYP) =  -257.751561117     A.U. after   10 cycles
 E2(B2PLYP) =    -0.2672072530D+00 E(B2PLYP) =    -0.25801876837039D+03
 SCF Done:  E(RB2PLYP) =  -257.751465626     A.U. after   12 cycles
 E2(B2PLYP) =    -0.2670980805D+00 E(B2PLYP) =    -0.25801856370690D+03
 SCF Done:  E(RB2PLYP) =  -257.751555086     A.U. after    9 cycles
 E2(B2PLYP) =    -0.2672139241D+00 E(B2PLYP) =    -0.25801876901008D+03
 SCF Done:  E(RB2PLYP) =  -257.751556564     A.U. after    7 cycles
 E2(B2PLYP) =    -0.2672126191D+00 E(B2PLYP) =    -0.25801876918354D+03
 SCF Done:  E(RB2PLYP) =  -257.751552521     A.U. after    8 cycles
 E2(B2PLYP) =    -0.2672166085D+00 E(B2PLYP) =    -0.25801876912966D+03
 SCF Done:  E(RB2PLYP) =  -257.751552207     A.U. after    6 cycles
 E2(B2PLYP) =    -0.2672170004D+00 E(B2PLYP) =    -0.25801876920733D+03
 SCF Done:  E(RB2PLYP) =  -257.751557903     A.U. after    9 cycles
 E2(B2PLYP) =    -0.2672100532D+00 E(B2PLYP) =    -0.25801876795573D+03
 SCF Done:  E(RB2PLYP) =  -257.751550557     A.U. after    7 cycles
 E2(B2PLYP) =    -0.2672186494D+00 E(B2PLYP) =    -0.25801876920674D+03
 SCF Done:  E(RB2PLYP) =  -257.751551589     A.U. after    5 cycles
 E2(B2PLYP) =    -0.2672176195D+00 E(B2PLYP) =    -0.25801876920895D+03
 SCF Done:  E(RB2PLYP) =  -257.751551824     A.U. after    6 cycles
 E2(B2PLYP) =    -0.2672173849D+00 E(B2PLYP) =    -0.25801876920889D+03
 Optimization completed.
    -- Stationary point found.
 Normal termination of Gaussian 09 at Tue Nov 26 08:16:03 2013.

 ----------------------------------------------------------------------
 #N Geom=AllCheck Guess=TCheck SCRF=Check GenChk RB2PLYP(FC)/6-31G(d,p)
  Freq
 ----------------------------------------------------------------------

 Structure from the checkpoint file:  "/tmp/rdj3/g09-23219/Gau-6418.chk"
 ------------------------------------------------------------------
 1H-tetrazole CH2N4 casno=288948 state=1 config=1 method=56 basis=3
 ------------------------------------------------------------------
 Charge =  0 Multiplicity = 1

                         Standard orientation:
 ---------------------------------------------------------------------
 Center     Atomic      Atomic             Coordinates (Angstroms)
 Number     Number       Type             X           Y           Z
 ---------------------------------------------------------------------
      1          6           0        1.069229    0.237672    0.000000
      2          7           0        0.000000    1.056871    0.000000
      3          7           0       -1.125473    0.303921    0.000000
      4          7           0       -0.723344   -0.930923    0.000000
      5          7           0        0.641714   -1.009183    0.000000
      6          1           0        2.094275    0.566048    0.000000
      7          1           0       -0.059934    2.063122    0.000000
 ---------------------------------------------------------------------

 SCF Done:  E(RB2PLYP) =  -257.751551824     A.U. after    1 cycles
 E2(B2PLYP) =    -0.2672173860D+00 E(B2PLYP) =    -0.25801876921004D+03
 E2(B2PLYP) =    -0.2672173860D+00 E(B2PLYP) =    -0.25801876921004D+03

 The electronic state is 1-A'.
 Alpha  occ. eigenvalues --  -14.97036 -14.94071 -14.92268 -14.88820 -10.72642
 Alpha  occ. eigenvalues --   -1.28674  -1.07596  -1.01945  -0.77608  -0.75869
 Alpha  occ. eigenvalues --   -0.68185  -0.57387  -0.57065  -0.45870  -0.38384
 Alpha  occ. eigenvalues --   -0.37810  -0.36709  -0.35608
 Alpha virt. eigenvalues --    0.04066   0.08411   0.11210   0.16594   0.25935
 Alpha virt. eigenvalues --    0.26704   0.35581   0.39279   0.50280   0.60036
 Alpha virt. eigenvalues --    0.60616   0.68468   0.69252   0.73842   0.76000

 Mulliken charges:
               1
     1  C    0.303063
     2  N   -0.354000
     3  N   -0.047391
     4  N   -0.083284
     5  N   -0.301306
     6  H    0.170075
     7  H    0.312843
 Sum of Mulliken charges =   0.00000

 Dipole moment (field-independent basis, Debye):
    X=              2.4978    Y=              4.7763    Z=              0.0000  Tot=              5.3900
 Quadrupole moment (field-independent basis, Debye-Ang):
   XX=            -28.7936   YY=            -26.1846   ZZ=            -28.2874
   XY=              1.8048   XZ=              0.0000   YZ=              0.0000

  Exact polarizability:  37.613   1.059  37.088   0.000   0.000  15.577
 Approx polarizability:  50.817   0.127  53.895   0.000   0.000  20.361

                      1                      2                      3
                     A"                     A"                     A"
 Frequencies --    580.7028               692.2174               735.3625
 Red. masses --      1.8471                 1.9861                 7.4939
 Frc consts  --      0.3670                 0.5607                 2.3876
 IR Inten    --     86.4313                10.9122                 9.8565

                      4                      5                      6
                     A"                     A'                     A'
 Frequencies --    850.8988               968.0724              1009.6170
 Red. masses --      1.3310                 5.0460                 6.1330
 Frc consts  --      0.5678                 2.7862                 3.6833
 IR Inten    --     18.4848                 3.7671                 0.4987

                      7                      8                      9
                     A'                     A'                     A'
 Frequencies --   1054.4900              1070.5729              1157.1971
 Red. masses --      5.2943                 3.8068                 1.8402
 Frc consts  --      3.4685                 2.5706                 1.4519
 IR Inten    --     14.5346                29.6334                14.9405

                     10                     11                     12
                     A'                     A'                     A'
 Frequencies --   1267.8764              1273.8220              1474.6244
 Red. masses --      4.5339                 3.4460                 3.1184
 Frc consts  --      4.2942                 3.2945                 3.9953
 IR Inten    --     14.6955                 1.1316                10.6801

                     13                     14                     15
                     A'                     A'                     A'
 Frequencies --   1511.5935              3338.9026              3699.9812
 Red. masses --      3.0654                 1.1003                 1.0840
 Frc consts  --      4.1267                 7.2270                 8.7430
 IR Inten    --     18.9614                 1.4081                96.5872

 - Thermochemistry -
 -------------------
 Temperature   298.150 Kelvin.  Pressure   1.00000 Atm.
 Atom     1 has atomic number  6 and mass  12.00000

 Molecular mass:    70.02795 amu.
 Principal axes and moments of inertia in atomic units:
                           1         2         3
     Eigenvalues --   172.44113 175.52274 347.96387
           X            0.85230   0.52306   0.00000
           Y           -0.52306   0.85230   0.00000
           Z            0.00000   0.00000   1.00000
 This molecule is an asymmetric top.
 Rotational symmetry number  1.
 Rotational temperatures (Kelvin)      0.50228     0.49346     0.24892
 Rotational constants (GHZ):          10.46584    10.28209     5.18658
 Zero-point vibrational energy     123729.3 (Joules/Mol)
                                   29.57202 (Kcal/Mol)
 Warning -- explicit consideration of   1 degrees of freedom as
           vibrations may cause significant error
 Vibrational temperatures:    835.50   995.95  1058.02  1224.25  1392.84
          (Kelvin)           1452.61  1517.17  1540.31  1664.95  1824.19
                             1832.74  2121.65  2174.84  4803.93  5323.44

 Zero-point correction=                           0.047126 (Hartree/Particle)
 Thermal correction to Energy=                    0.050600
 Thermal correction to Enthalpy=                  0.051544
 Thermal correction to Gibbs Free Energy=         0.021022
 Sum of electronic and zero-point Energies=           -257.971643
 Sum of electronic and thermal Energies=              -257.968170
 Sum of electronic and thermal Enthalpies=            -257.967225
 Sum of electronic and thermal Free Energies=         -257.997747

                     E (Thermal)             CV                S
                      KCal/Mol        Cal/Mol-Kelvin    Cal/Mol-Kelvin
 Total                   31.752             11.334             64.238
 Electronic               0.000              0.000              0.000
 Translational            0.889              2.981             38.656
 Rotational               0.889              2.981             23.869
 Vibrational             29.974              5.373              1.713
 Vibration     1          0.937              1.073              0.484

 Normal termination of Gaussian 09 at Tue Nov 26 08:16:55 2013.
