 Gaussian 09, Revision D.01,
 Gaussian 09:  EM64L-G09RevD.01 24-Apr-2013

 ----------------------------------------
 #B2PLYP/6-31G* opt=z-matrix freq density
 ----------------------------------------

 ------------------------------------------------------------------
 1H-tetrazole CH2N4 casno=288948 state=1 config=1 method=56 basis=1
 ------------------------------------------------------------------
 Symbolic Z-matrix:
 Charge =  0 Multiplicity = 1

 SCF Done:  E(RB2PLYP) =  -257.746738434     A.U. after   15 cycles
 E2(B2PLYP) =    -0.2579119407D+00 E(B2PLYP) =    -0.25800465037467D+03
 SCF Done:  E(RB2PLYP) =  -257.746695122     A.U. after   13 cycles
 E2(B2PLYP) =    -0.2631990685D+00 E(B2PLYP) =    -0.25800989419018D+03
 SCF Done:  E(RB2PLYP) =  -257.746181189     A.U. after   11 cycles
 E2(B2PLYP) =    -0.2638507602D+00 E(B2PLYP) =    -0.25801003194912D+03
 SCF Done:  E(RB2PLYP) =  -257.746114973     A.U. after   11 cycles
 E2(B2PLYP) =    -0.2638847057D+00 E(B2PLYP) =    -0.25800999967844D+03
 SCF Done:  E(RB2PLYP) =  -257.746051075     A.U. after   10 cycles
 E2(B2PLYP) =    -0.2639929370D+00 E(B2PLYP) =    -0.25801004401213D+03
 SCF Done:  E(RB2PLYP) =  -257.746009186     A.U. after   12 cycles
 E2(B2PLYP) =    -0.2638827293D+00 E(B2PLYP) =    -0.25800989191479D+03
 SCF Done:  E(RB2PLYP) =  -257.746046212     A.U. after    9 cycles
 E2(B2PLYP) =    -0.2639986052D+00 E(B2PLYP) =    -0.25801004481757D+03
 SCF Done:  E(RB2PLYP) =  -257.745995908     A.U. after   11 cycles
 E2(B2PLYP) =    -0.2640226055D+00 E(B2PLYP) =    -0.25801001851316D+03
 SCF Done:  E(RB2PLYP) =  -257.746046037     A.U. after    8 cycles
 E2(B2PLYP) =    -0.2639989964D+00 E(B2PLYP) =    -0.25801004503386D+03
 SCF Done:  E(RB2PLYP) =  -257.746048563     A.U. after    6 cycles
 E2(B2PLYP) =    -0.2639964614D+00 E(B2PLYP) =    -0.25801004502452D+03
 SCF Done:  E(RB2PLYP) =  -257.746027267     A.U. after    9 cycles
 E2(B2PLYP) =    -0.2640157010D+00 E(B2PLYP) =    -0.25801004296799D+03
 SCF Done:  E(RB2PLYP) =  -257.746041607     A.U. after   10 cycles
 E2(B2PLYP) =    -0.2640022657D+00 E(B2PLYP) =    -0.25801004387281D+03
 SCF Done:  E(RB2PLYP) =  -257.737936323     A.U. after   14 cycles
 E2(B2PLYP) =    -0.2663574911D+00 E(B2PLYP) =    -0.25800429381415D+03
 SCF Done:  E(RB2PLYP) =  -257.746044964     A.U. after    7 cycles
 E2(B2PLYP) =    -0.2640000699D+00 E(B2PLYP) =    -0.25801004503416D+03
 SCF Done:  E(RB2PLYP) =  -257.746095175     A.U. after    9 cycles
 E2(B2PLYP) =    -0.2639474889D+00 E(B2PLYP) =    -0.25801004266381D+03
 SCF Done:  E(RB2PLYP) =  -257.746046883     A.U. after    7 cycles
 E2(B2PLYP) =    -0.2639981627D+00 E(B2PLYP) =    -0.25801004504609D+03
 SCF Done:  E(RB2PLYP) =  -257.746044934     A.U. after    7 cycles
 E2(B2PLYP) =    -0.2640001092D+00 E(B2PLYP) =    -0.25801004504289D+03
 Optimization completed.
    -- Stationary point found.
 Normal termination of Gaussian 09 at Tue Nov 26 08:01:50 2013.

 ----------------------------------------------------------------------
 #N Geom=AllCheck Guess=TCheck SCRF=Check GenChk RB2PLYP(FC)/6-31G(d) F
 req
 ----------------------------------------------------------------------

 Structure from the checkpoint file:  "/tmp/rdj3/g09-23219/Gau-27766.chk"
 ------------------------------------------------------------------
 1H-tetrazole CH2N4 casno=288948 state=1 config=1 method=56 basis=1
 ------------------------------------------------------------------
 Charge =  0 Multiplicity = 1

                         Standard orientation:
 ---------------------------------------------------------------------
 Center     Atomic      Atomic             Coordinates (Angstroms)
 Number     Number       Type             X           Y           Z
 ---------------------------------------------------------------------
      1          6           0        1.069399    0.237731    0.000000
      2          7           0        0.000000    1.056673    0.000000
      3          7           0       -1.125563    0.303996    0.000000
      4          7           0       -0.723332   -0.931169    0.000000
      5          7           0        0.641886   -1.009163    0.000000
      6          1           0        2.096099    0.566141    0.000000
      7          1           0       -0.063437    2.065107    0.000000
 ---------------------------------------------------------------------

 SCF Done:  E(RB2PLYP) =  -257.746044934     A.U. after    1 cycles
 E2(B2PLYP) =    -0.2640001116D+00 E(B2PLYP) =    -0.25801004504531D+03
 E2(B2PLYP) =    -0.2640001116D+00 E(B2PLYP) =    -0.25801004504531D+03

 The electronic state is 1-A'.
 Alpha  occ. eigenvalues --  -14.97061 -14.94071 -14.92268 -14.88816 -10.72658
 Alpha  occ. eigenvalues --   -1.28691  -1.07600  -1.01948  -0.77638  -0.75888
 Alpha  occ. eigenvalues --   -0.68251  -0.57440  -0.57062  -0.45897  -0.38366
 Alpha  occ. eigenvalues --   -0.37820  -0.36714  -0.35603
 Alpha virt. eigenvalues --    0.04135   0.08449   0.11063   0.16513   0.25997
 Alpha virt. eigenvalues --    0.26774   0.35658   0.39264   0.50320   0.60569
 Alpha virt. eigenvalues --    0.60600   0.68588   0.69226   0.74212   0.76284

 Mulliken charges:
               1
     1  C    0.244876
     2  N   -0.428098
     3  N   -0.039335
     4  N   -0.083226
     5  N   -0.293989
     6  H    0.215635
     7  H    0.384137
 Sum of Mulliken charges =   0.00000

 Dipole moment (field-independent basis, Debye):
    X=              2.5087    Y=              4.7990    Z=              0.0000  Tot=              5.4152
 Quadrupole moment (field-independent basis, Debye-Ang):
   XX=            -28.7722   YY=            -26.1510   ZZ=            -28.3263
   XY=              1.8050   XZ=              0.0000   YZ=              0.0000

  Exact polarizability:  37.487   1.031  36.928   0.000   0.000  15.454
 Approx polarizability:  50.634   0.092  53.633   0.000   0.000  20.156

                      1                      2                      3
                     A"                     A"                     A"
 Frequencies --    571.2133               692.4007               735.6392
 Red. masses --      1.8068                 2.0177                 7.7676
 Frc consts  --      0.3474                 0.5699                 2.4767
 IR Inten    --     91.8602                 9.9938                 9.2512

                      4                      5                      6
                     A"                     A'                     A'
 Frequencies --    844.7230               968.1680              1011.5663
 Red. masses --      1.3305                 5.0850                 6.2824
 Frc consts  --      0.5594                 2.8083                 3.7876
 IR Inten    --     19.8472                 3.9688                 0.4587

                      7                      8                      9
                     A'                     A'                     A'
 Frequencies --   1056.2679              1072.2557              1159.3321
 Red. masses --      5.3041                 3.8592                 1.8152
 Frc consts  --      3.4867                 2.6142                 1.4375
 IR Inten    --     14.1511                30.4144                15.0700

                     10                     11                     12
                     A'                     A'                     A'
 Frequencies --   1266.5356              1274.8352              1474.0621
 Red. masses --      4.9365                 3.2463                 3.1414
 Frc consts  --      4.6656                 3.1084                 4.0216
 IR Inten    --     15.1091                 0.7735                10.4521

                     13                     14                     15
                     A'                     A'                     A'
 Frequencies --   1511.5189              3339.1865              3673.0576
 Red. masses --      3.0255                 1.1004                 1.0840
 Frc consts  --      4.0727                 7.2290                 8.6165
 IR Inten    --     19.7695                 1.2176                92.1967

 - Thermochemistry -
 -------------------
 Temperature   298.150 Kelvin.  Pressure   1.00000 Atm.
 Atom     1 has atomic number  6 and mass  12.00000

 Molecular mass:    70.02795 amu.
 Principal axes and moments of inertia in atomic units:
                           1         2         3
     Eigenvalues --   172.46239 175.59964 348.06203
           X            0.85297   0.52195   0.00000
           Y           -0.52195   0.85297   0.00000
           Z            0.00000   0.00000   1.00000
 This molecule is an asymmetric top.
 Rotational symmetry number  1.
 Rotational temperatures (Kelvin)      0.50222     0.49325     0.24885
 Rotational constants (GHZ):          10.46455    10.27759     5.18511
 Zero-point vibrational energy     123519.0 (Joules/Mol)
                                   29.52175 (Kcal/Mol)
 Warning -- explicit consideration of   1 degrees of freedom as
           vibrations may cause significant error
 Vibrational temperatures:    821.85   996.21  1058.42  1215.37  1392.98
          (Kelvin)           1455.42  1519.73  1542.73  1668.02  1822.26
                             1834.20  2120.84  2174.74  4804.34  5284.70

 Zero-point correction=                           0.047046 (Hartree/Particle)
 Thermal correction to Energy=                    0.050526
 Thermal correction to Enthalpy=                  0.051470
 Thermal correction to Gibbs Free Energy=         0.020938
 Sum of electronic and zero-point Energies=           -257.962999
 Sum of electronic and thermal Energies=              -257.959519
 Sum of electronic and thermal Enthalpies=            -257.958575
 Sum of electronic and thermal Free Energies=         -257.989107

                     E (Thermal)             CV                S
                      KCal/Mol        Cal/Mol-Kelvin    Cal/Mol-Kelvin
 Total                   31.705             11.357             64.259
 Electronic               0.000              0.000              0.000
 Translational            0.889              2.981             38.656
 Rotational               0.889              2.981             23.870
 Vibrational             29.928              5.395              1.732
 Vibration     1          0.927              1.094              0.502

 Normal termination of Gaussian 09 at Tue Nov 26 08:02:34 2013.
