 Gaussian 09, Revision D.01,
 Gaussian 09:  EM64L-G09RevD.01 24-Apr-2013

 ------------------------------------------
 #B2PLYP/6-311G** opt=z-matrix freq density
 ------------------------------------------

 -------------------------------------------------------------------
 1H-tetrazole CH2N4 casno=288948 state=1 config=1 method=56 basis=21
 -------------------------------------------------------------------
 Symbolic Z-matrix:
 Charge =  0 Multiplicity = 1

 SCF Done:  E(RB2PLYP) =  -257.810247248     A.U. after   14 cycles
 E2(B2PLYP) =    -0.2738462117D+00 E(B2PLYP) =    -0.25808409345945D+03
 SCF Done:  E(RB2PLYP) =  -257.809874653     A.U. after   12 cycles
 E2(B2PLYP) =    -0.2783611269D+00 E(B2PLYP) =    -0.25808823577951D+03
 SCF Done:  E(RB2PLYP) =  -257.809320323     A.U. after   11 cycles
 E2(B2PLYP) =    -0.2790250836D+00 E(B2PLYP) =    -0.25808834540661D+03
 SCF Done:  E(RB2PLYP) =  -257.809218393     A.U. after   12 cycles
 E2(B2PLYP) =    -0.2789376831D+00 E(B2PLYP) =    -0.25808815607574D+03
 SCF Done:  E(RB2PLYP) =  -257.809221472     A.U. after   10 cycles
 E2(B2PLYP) =    -0.2791366484D+00 E(B2PLYP) =    -0.25808835812082D+03
 SCF Done:  E(RB2PLYP) =  -257.809248681     A.U. after   10 cycles
 E2(B2PLYP) =    -0.2790879891D+00 E(B2PLYP) =    -0.25808833666961D+03
 SCF Done:  E(RB2PLYP) =  -257.809245285     A.U. after    9 cycles
 E2(B2PLYP) =    -0.2791145963D+00 E(B2PLYP) =    -0.25808835988129D+03
 SCF Done:  E(RB2PLYP) =  -257.809250047     A.U. after    9 cycles
 E2(B2PLYP) =    -0.2791027632D+00 E(B2PLYP) =    -0.25808835281014D+03
 SCF Done:  E(RB2PLYP) =  -257.809256356     A.U. after    9 cycles
 E2(B2PLYP) =    -0.2790990282D+00 E(B2PLYP) =    -0.25808835538418D+03
 SCF Done:  E(RB2PLYP) =  -257.809246157     A.U. after    6 cycles
 E2(B2PLYP) =    -0.2791137546D+00 E(B2PLYP) =    -0.25808835991191D+03
 SCF Done:  E(RB2PLYP) =  -257.809254100     A.U. after    8 cycles
 E2(B2PLYP) =    -0.2791052146D+00 E(B2PLYP) =    -0.25808835931436D+03
 SCF Done:  E(RB2PLYP) =  -257.809251384     A.U. after    9 cycles
 E2(B2PLYP) =    -0.2791084563D+00 E(B2PLYP) =    -0.25808835984007D+03
 SCF Done:  E(RB2PLYP) =  -257.809242578     A.U. after    9 cycles
 E2(B2PLYP) =    -0.2791042310D+00 E(B2PLYP) =    -0.25808834680851D+03
 SCF Done:  E(RB2PLYP) =  -257.809243340     A.U. after    9 cycles
 E2(B2PLYP) =    -0.2791121069D+00 E(B2PLYP) =    -0.25808835544699D+03
 SCF Done:  E(RB2PLYP) =  -257.809246206     A.U. after    3 cycles
 E2(B2PLYP) =    -0.2791137698D+00 E(B2PLYP) =    -0.25808835997576D+03
 SCF Done:  E(RB2PLYP) =  -257.809257557     A.U. after    7 cycles
 E2(B2PLYP) =    -0.2791024745D+00 E(B2PLYP) =    -0.25808836003120D+03
 SCF Done:  E(RB2PLYP) =  -257.809269706     A.U. after    9 cycles
 E2(B2PLYP) =    -0.2790894294D+00 E(B2PLYP) =    -0.25808835913502D+03
 SCF Done:  E(RB2PLYP) =  -257.809257810     A.U. after    5 cycles
 E2(B2PLYP) =    -0.2791022337D+00 E(B2PLYP) =    -0.25808836004412D+03
 SCF Done:  E(RB2PLYP) =  -257.809258677     A.U. after    7 cycles
 E2(B2PLYP) =    -0.2791013596D+00 E(B2PLYP) =    -0.25808836003692D+03
 Optimization completed.
    -- Stationary point found.
 Normal termination of Gaussian 09 at Tue Nov 26 08:06:18 2013.

 ----------------------------------------------------------------------
 #N Geom=AllCheck Guess=TCheck SCRF=Check GenChk RB2PLYP(FC)/6-311G(d,p
 ) Freq
 ----------------------------------------------------------------------

 Structure from the checkpoint file:  "/tmp/rdj3/g09-23219/Gau-31897.chk"
 -------------------------------------------------------------------
 1H-tetrazole CH2N4 casno=288948 state=1 config=1 method=56 basis=21
 -------------------------------------------------------------------
 Charge =  0 Multiplicity = 1

                         Standard orientation:
 ---------------------------------------------------------------------
 Center     Atomic      Atomic             Coordinates (Angstroms)
 Number     Number       Type             X           Y           Z
 ---------------------------------------------------------------------
      1          6           0        1.067978    0.235409    0.000000
      2          7           0        0.000000    1.055835    0.000000
      3          7           0       -1.122176    0.302748    0.000000
      4          7           0       -0.723456   -0.927488    0.000000
      5          7           0        0.639996   -1.007685    0.000000
      6          1           0        2.093483    0.561959    0.000000
      7          1           0       -0.061898    2.061715    0.000000
 ---------------------------------------------------------------------

 SCF Done:  E(RB2PLYP) =  -257.809258677     A.U. after    1 cycles
 E2(B2PLYP) =    -0.2791013576D+00 E(B2PLYP) =    -0.25808836003494D+03
 E2(B2PLYP) =    -0.2791013576D+00 E(B2PLYP) =    -0.25808836003494D+03

 The electronic state is 1-A'.
 Alpha  occ. eigenvalues --  -14.95417 -14.92516 -14.90706 -14.87314 -10.71652
 Alpha  occ. eigenvalues --   -1.29343  -1.08005  -1.02454  -0.77956  -0.76303
 Alpha  occ. eigenvalues --   -0.68638  -0.57808  -0.57580  -0.46294  -0.38820
 Alpha  occ. eigenvalues --   -0.38149  -0.37085  -0.36111
 Alpha virt. eigenvalues --    0.03550   0.06137   0.07794   0.10336   0.23589
 Alpha virt. eigenvalues --    0.24652   0.27924   0.34357   0.39951   0.45446
 Alpha virt. eigenvalues --    0.48704   0.50402   0.56821   0.63060   0.63456

 Mulliken charges:
               1
     1  C    0.214397
     2  N   -0.268181
     3  N   -0.030517
     4  N   -0.086442
     5  N   -0.229421
     6  H    0.145267
     7  H    0.254896
 Sum of Mulliken charges =   0.00000

 Dipole moment (field-independent basis, Debye):
    X=              2.4842    Y=              4.7869    Z=              0.0000  Tot=              5.3931
 Quadrupole moment (field-independent basis, Debye-Ang):
   XX=            -29.0958   YY=            -26.5639   ZZ=            -28.4049
   XY=              1.8118   XZ=              0.0000   YZ=              0.0000

  Exact polarizability:  38.859   1.062  38.268   0.000   0.000  17.598
 Approx polarizability:  51.392   0.251  54.497   0.000   0.000  22.417

                      1                      2                      3
                     A"                     A"                     A"
 Frequencies --    593.5608               695.0910               736.3066
 Red. masses --      1.9323                 1.8897                 7.0173
 Frc consts  --      0.4011                 0.5379                 2.2415
 IR Inten    --     80.2949                12.2310                10.9600

                      4                      5                      6
                     A"                     A'                     A'
 Frequencies --    863.1705               962.6134              1012.1394
 Red. masses --      1.3512                 5.0698                 6.2621
 Frc consts  --      0.5932                 2.7679                 3.7796
 IR Inten    --     19.2069                 4.6937                 0.1955

                      7                      8                      9
                     A'                     A'                     A'
 Frequencies --   1042.9064              1067.1718              1148.7141
 Red. masses --      5.3952                 3.3692                 1.9635
 Frc consts  --      3.4574                 2.2607                 1.5265
 IR Inten    --     15.4548                28.4172                16.5584

                     10                     11                     12
                     A'                     A'                     A'
 Frequencies --   1262.6037              1266.6567              1459.7531
 Red. masses --      2.6176                 8.0134                 3.2457
 Frc consts  --      2.4586                 7.5750                 4.0749
 IR Inten    --      8.0085                 7.6820                 9.2754

                     13                     14                     15
                     A'                     A'                     A'
 Frequencies --   1503.5212              3306.5150              3674.9094
 Red. masses --      2.8519                 1.1006                 1.0839
 Frc consts  --      3.7984                 7.0897                 8.6249
 IR Inten    --     18.2398                 1.6208                99.5675

 - Thermochemistry -
 -------------------
 Temperature   298.150 Kelvin.  Pressure   1.00000 Atm.
 Atom     1 has atomic number  6 and mass  12.00000

 Molecular mass:    70.02795 amu.
 Principal axes and moments of inertia in atomic units:
                           1         2         3
     Eigenvalues --   171.74356 174.92527 346.66883
           X            0.85729   0.51484   0.00000
           Y           -0.51484   0.85729   0.00000
           Z            0.00000   0.00000   1.00000
 This molecule is an asymmetric top.
 Rotational symmetry number  1.
 Rotational temperatures (Kelvin)      0.50432     0.49515     0.24985
 Rotational constants (GHZ):          10.50835    10.31721     5.20595
 Zero-point vibrational energy     123189.2 (Joules/Mol)
                                   29.44294 (Kcal/Mol)
 Warning -- explicit consideration of   1 degrees of freedom as
           vibrations may cause significant error
 Vibrational temperatures:    854.00  1000.08  1059.38  1241.91  1384.98
          (Kelvin)           1456.24  1500.51  1535.42  1652.74  1816.60
                             1822.43  2100.26  2163.23  4757.33  5287.37

 Zero-point correction=                           0.046920 (Hartree/Particle)
 Thermal correction to Energy=                    0.050386
 Thermal correction to Enthalpy=                  0.051330
 Thermal correction to Gibbs Free Energy=         0.020826
 Sum of electronic and zero-point Energies=           -258.041440
 Sum of electronic and thermal Energies=              -258.037974
 Sum of electronic and thermal Enthalpies=            -258.037030
 Sum of electronic and thermal Free Energies=         -258.067534

                     E (Thermal)             CV                S
                      KCal/Mol        Cal/Mol-Kelvin    Cal/Mol-Kelvin
 Total                   31.618             11.319             64.202
 Electronic               0.000              0.000              0.000
 Translational            0.889              2.981             38.656
 Rotational               0.889              2.981             23.858
 Vibrational             29.840              5.357              1.688
 Vibration     1          0.951              1.045              0.461

 Normal termination of Gaussian 09 at Tue Nov 26 08:07:51 2013.
