 Gaussian 09, Revision D.01,
 Gaussian 09:  EM64L-G09RevD.01 24-Apr-2013

 ---------------------------------------------
 #B2PLYP/aug-cc-pVTZ opt=z-matrix freq density
 ---------------------------------------------

 -------------------------------------------------------------------
 1H-tetrazole CH2N4 casno=288948 state=1 config=1 method=56 basis=18
 -------------------------------------------------------------------
 Symbolic Z-matrix:
 Charge =  0 Multiplicity = 1

 SCF Done:  E(RB2PLYP) =  -257.844731350     A.U. after   12 cycles
 E2(B2PLYP) =    -0.3189955214D+00 E(B2PLYP) =    -0.25816372687184D+03
 SCF Done:  E(RB2PLYP) =  -257.844106512     A.U. after   11 cycles
 E2(B2PLYP) =    -0.3230721253D+00 E(B2PLYP) =    -0.25816717863692D+03
 SCF Done:  E(RB2PLYP) =  -257.843589530     A.U. after    9 cycles
 E2(B2PLYP) =    -0.3236930204D+00 E(B2PLYP) =    -0.25816728255086D+03
 SCF Done:  E(RB2PLYP) =  -257.843638930     A.U. after   11 cycles
 E2(B2PLYP) =    -0.3230540393D+00 E(B2PLYP) =    -0.25816669296919D+03
 SCF Done:  E(RB2PLYP) =  -257.843371989     A.U. after    9 cycles
 E2(B2PLYP) =    -0.3239222832D+00 E(B2PLYP) =    -0.25816729427170D+03
 SCF Done:  E(RB2PLYP) =  -257.843574964     A.U. after    9 cycles
 E2(B2PLYP) =    -0.3237199347D+00 E(B2PLYP) =    -0.25816729489903D+03
 SCF Done:  E(RB2PLYP) =  -257.843582353     A.U. after    8 cycles
 E2(B2PLYP) =    -0.3237240268D+00 E(B2PLYP) =    -0.25816730637946D+03
 SCF Done:  E(RB2PLYP) =  -257.843528355     A.U. after    9 cycles
 E2(B2PLYP) =    -0.3237803364D+00 E(B2PLYP) =    -0.25816730869184D+03
 SCF Done:  E(RB2PLYP) =  -257.843564860     A.U. after    9 cycles
 E2(B2PLYP) =    -0.3237389367D+00 E(B2PLYP) =    -0.25816730379719D+03
 SCF Done:  E(RB2PLYP) =  -257.843451145     A.U. after    9 cycles
 E2(B2PLYP) =    -0.3238696860D+00 E(B2PLYP) =    -0.25816732083152D+03
 SCF Done:  E(RB2PLYP) =  -257.843472665     A.U. after    9 cycles
 E2(B2PLYP) =    -0.3238474368D+00 E(B2PLYP) =    -0.25816732010180D+03
 SCF Done:  E(RB2PLYP) =  -257.843448864     A.U. after    7 cycles
 E2(B2PLYP) =    -0.3238727326D+00 E(B2PLYP) =    -0.25816732159694D+03
 SCF Done:  E(RB2PLYP) =  -257.843454730     A.U. after    7 cycles
 E2(B2PLYP) =    -0.3238669285D+00 E(B2PLYP) =    -0.25816732165853D+03
 SCF Done:  E(RB2PLYP) =  -257.843459523     A.U. after    7 cycles
 E2(B2PLYP) =    -0.3238620641D+00 E(B2PLYP) =    -0.25816732158714D+03
 SCF Done:  E(RB2PLYP) =  -257.843454793     A.U. after    6 cycles
 E2(B2PLYP) =    -0.3238669267D+00 E(B2PLYP) =    -0.25816732172001D+03
 SCF Done:  E(RB2PLYP) =  -257.843453097     A.U. after    6 cycles
 E2(B2PLYP) =    -0.3238686531D+00 E(B2PLYP) =    -0.25816732175021D+03
 SCF Done:  E(RB2PLYP) =  -257.843454628     A.U. after    8 cycles
 E2(B2PLYP) =    -0.3238663750D+00 E(B2PLYP) =    -0.25816732100287D+03
 SCF Done:  E(RB2PLYP) =  -257.843453409     A.U. after    4 cycles
 E2(B2PLYP) =    -0.3238683451D+00 E(B2PLYP) =    -0.25816732175400D+03
 SCF Done:  E(RB2PLYP) =  -257.843455259     A.U. after    6 cycles
 E2(B2PLYP) =    -0.3238665131D+00 E(B2PLYP) =    -0.25816732177164D+03
 Optimization completed.
    -- Stationary point found.
 Normal termination of Gaussian 09 at Tue Nov 26 06:18:52 2013.

 ----------------------------------------------------------------------
 #N Geom=AllCheck Guess=TCheck SCRF=Check GenChk RB2PLYP(FC)/Aug-CC-pVT
 Z Freq
 ----------------------------------------------------------------------

 Structure from the checkpoint file:  "/tmp/rdj3/g09-23219/Gau-21720.chk"
 -------------------------------------------------------------------
 1H-tetrazole CH2N4 casno=288948 state=1 config=1 method=56 basis=18
 -------------------------------------------------------------------
 Charge =  0 Multiplicity = 1

                         Standard orientation:
 ---------------------------------------------------------------------
 Center     Atomic      Atomic             Coordinates (Angstroms)
 Number     Number       Type             X           Y           Z
 ---------------------------------------------------------------------
      1          6           0        1.065643    0.236820    0.000000
      2          7           0        0.000000    1.053214    0.000000
      3          7           0       -1.119759    0.302386    0.000000
      4          7           0       -0.722439   -0.927459    0.000000
      5          7           0        0.638979   -1.005486    0.000000
      6          1           0        2.088756    0.563304    0.000000
      7          1           0       -0.060085    2.057188    0.000000
 ---------------------------------------------------------------------

 SCF Done:  E(RB2PLYP) =  -257.843455259     A.U. after    1 cycles
 E2(B2PLYP) =    -0.3238665149D+00 E(B2PLYP) =    -0.25816732177344D+03
 E2(B2PLYP) =    -0.3238665149D+00 E(B2PLYP) =    -0.25816732177344D+03

 The electronic state is 1-A'.
 Alpha  occ. eigenvalues --  -14.96118 -14.93472 -14.91844 -14.88274 -10.71993
 Alpha  occ. eigenvalues --   -1.29600  -1.08318  -1.02669  -0.78262  -0.76686
 Alpha  occ. eigenvalues --   -0.68934  -0.58107  -0.58106  -0.46789  -0.39282
 Alpha  occ. eigenvalues --   -0.38660  -0.37652  -0.36460
 Alpha virt. eigenvalues --   -0.00749   0.01849   0.02437   0.04559   0.04896
 Alpha virt. eigenvalues --    0.06916   0.07050   0.07962   0.08652   0.09682
 Alpha virt. eigenvalues --    0.10330   0.10890   0.12571   0.13841   0.14762

 Mulliken charges:
               1
     1  C   -0.244073
     2  N    0.214305
     3  N   -0.266813
     4  N   -0.168176
     5  N   -0.235663
     6  H    0.557704
     7  H    0.142716
 Sum of Mulliken charges =   0.00000

 Dipole moment (field-independent basis, Debye):
    X=              2.5157    Y=              4.7569    Z=              0.0000  Tot=              5.3812
 Quadrupole moment (field-independent basis, Debye-Ang):
   XX=            -29.4579   YY=            -26.9228   ZZ=            -28.9031
   XY=              1.8995   XZ=              0.0000   YZ=              0.0000

  Exact polarizability:  46.054   0.556  45.469   0.000   0.000  26.712
 Approx polarizability:  57.455   0.213  59.974   0.000   0.000  32.982

                      1                      2                      3
                     A"                     A"                     A"
 Frequencies --    593.4740               693.2450               739.3484
 Red. masses --      1.7234                 2.0157                 7.9426
 Frc consts  --      0.3576                 0.5708                 2.5581
 IR Inten    --     78.7355                 7.2251                 8.4972

                      4                      5                      6
                     A"                     A'                     A'
 Frequencies --    869.0863               956.1654              1007.3822
 Red. masses --      1.3752                 5.3816                 6.3776
 Frc consts  --      0.6120                 2.8988                 3.8132
 IR Inten    --     17.1545                 4.9899                 0.0940

                      7                      8                      9
                     A'                     A'                     A'
 Frequencies --   1035.7744              1059.0275              1144.5543
 Red. masses --      5.6765                 3.3376                 1.9414
 Frc consts  --      3.5881                 2.2055                 1.4984
 IR Inten    --     13.5892                28.3417                15.6586

                     10                     11                     12
                     A'                     A'                     A'
 Frequencies --   1248.2669              1260.4369              1453.2754
 Red. masses --      5.0829                 3.1017                 3.0658
 Frc consts  --      4.6663                 2.9033                 3.8150
 IR Inten    --     12.5379                 0.3715                10.1502

                     13                     14                     15
                     A'                     A'                     A'
 Frequencies --   1493.0490              3302.2762              3660.3673
 Red. masses --      2.9814                 1.1008                 1.0841
 Frc consts  --      3.9158                 7.0725                 8.5576
 IR Inten    --     17.1825                 2.2379                98.8423

 - Thermochemistry -
 -------------------
 Temperature   298.150 Kelvin.  Pressure   1.00000 Atm.
 Atom     1 has atomic number  6 and mass  12.00000

 Molecular mass:    70.02795 amu.
 Principal axes and moments of inertia in atomic units:
                           1         2         3
     Eigenvalues --   171.32460 174.10634 345.43093
           X            0.86119   0.50828   0.00000
           Y           -0.50828   0.86119   0.00000
           Z            0.00000   0.00000   1.00000
 This molecule is an asymmetric top.
 Rotational symmetry number  1.
 Rotational temperatures (Kelvin)      0.50555     0.49748     0.25074
 Rotational constants (GHZ):          10.53405    10.36574     5.22461
 Zero-point vibrational energy     122711.3 (Joules/Mol)
                                   29.32871 (Kcal/Mol)
 Warning -- explicit consideration of   1 degrees of freedom as
           vibrations may cause significant error
 Vibrational temperatures:    853.88   997.42  1063.76  1250.42  1375.71
          (Kelvin)           1449.40  1490.25  1523.70  1646.76  1795.98
                             1813.49  2090.94  2148.16  4751.23  5266.45

 Zero-point correction=                           0.046738 (Hartree/Particle)
 Thermal correction to Energy=                    0.050208
 Thermal correction to Enthalpy=                  0.051152
 Thermal correction to Gibbs Free Energy=         0.020648
 Sum of electronic and zero-point Energies=           -258.120584
 Sum of electronic and thermal Energies=              -258.117114
 Sum of electronic and thermal Enthalpies=            -258.116170
 Sum of electronic and thermal Free Energies=         -258.146674

                     E (Thermal)             CV                S
                      KCal/Mol        Cal/Mol-Kelvin    Cal/Mol-Kelvin
 Total                   31.506             11.355             64.201
 Electronic               0.000              0.000              0.000
 Translational            0.889              2.981             38.656
 Rotational               0.889              2.981             23.848
 Vibrational             29.728              5.394              1.697
 Vibration     1          0.951              1.046              0.461

 Normal termination of Gaussian 09 at Tue Nov 26 07:48:42 2013.
