 Gaussian 09, Revision D.01,
 Gaussian 09:  EM64L-G09RevD.01 24-Apr-2013

 ------------------------------------------
 #B2PLYP/6-31+G** opt=z-matrix freq density
 ------------------------------------------

 ------------------------------------------------------------------
 1H-tetrazole CH2N4 casno=288948 state=1 config=1 method=56 basis=4
 ------------------------------------------------------------------
 Symbolic Z-matrix:
 Charge =  0 Multiplicity = 1

 SCF Done:  E(RB2PLYP) =  -257.762124797     A.U. after   13 cycles
 E2(B2PLYP) =    -0.2647801164D+00 E(B2PLYP) =    -0.25802690491366D+03
 SCF Done:  E(RB2PLYP) =  -257.762076913     A.U. after   12 cycles
 E2(B2PLYP) =    -0.2700997242D+00 E(B2PLYP) =    -0.25803217663770D+03
 SCF Done:  E(RB2PLYP) =  -257.761472132     A.U. after   11 cycles
 E2(B2PLYP) =    -0.2708437721D+00 E(B2PLYP) =    -0.25803231590392D+03
 SCF Done:  E(RB2PLYP) =  -257.761388930     A.U. after   11 cycles
 E2(B2PLYP) =    -0.2704935194D+00 E(B2PLYP) =    -0.25803188244945D+03
 SCF Done:  E(RB2PLYP) =  -257.761335883     A.U. after   10 cycles
 E2(B2PLYP) =    -0.2710033089D+00 E(B2PLYP) =    -0.25803233919242D+03
 SCF Done:  E(RB2PLYP) =  -257.761336834     A.U. after   10 cycles
 E2(B2PLYP) =    -0.2709497583D+00 E(B2PLYP) =    -0.25803228659269D+03
 SCF Done:  E(RB2PLYP) =  -257.761372928     A.U. after    9 cycles
 E2(B2PLYP) =    -0.2709708838D+00 E(B2PLYP) =    -0.25803234381219D+03
 SCF Done:  E(RB2PLYP) =  -257.761358892     A.U. after   10 cycles
 E2(B2PLYP) =    -0.2709012372D+00 E(B2PLYP) =    -0.25803226012918D+03
 SCF Done:  E(RB2PLYP) =  -257.761385787     A.U. after    9 cycles
 E2(B2PLYP) =    -0.2709585921D+00 E(B2PLYP) =    -0.25803234437943D+03
 SCF Done:  E(RB2PLYP) =  -257.761390441     A.U. after    8 cycles
 E2(B2PLYP) =    -0.2709539995D+00 E(B2PLYP) =    -0.25803234444092D+03
 SCF Done:  E(RB2PLYP) =  -257.761387433     A.U. after    7 cycles
 E2(B2PLYP) =    -0.2709569632D+00 E(B2PLYP) =    -0.25803234439641D+03
 Optimization completed.
    -- Stationary point found.
 Normal termination of Gaussian 09 at Tue Nov 26 08:18:41 2013.

 ----------------------------------------------------------------------
 #N Geom=AllCheck Guess=TCheck SCRF=Check GenChk RB2PLYP(FC)/6-31+G(d,p
 ) Freq
 ----------------------------------------------------------------------

 Structure from the checkpoint file:  "/tmp/rdj3/g09-23219/Gau-8042.chk"
 ------------------------------------------------------------------
 1H-tetrazole CH2N4 casno=288948 state=1 config=1 method=56 basis=4
 ------------------------------------------------------------------
 Charge =  0 Multiplicity = 1

                         Standard orientation:
 ---------------------------------------------------------------------
 Center     Atomic      Atomic             Coordinates (Angstroms)
 Number     Number       Type             X           Y           Z
 ---------------------------------------------------------------------
      1          6           0        1.070199    0.238614    0.000000
      2          7           0        0.000000    1.057793    0.000000
      3          7           0       -1.124940    0.303697    0.000000
      4          7           0       -0.723734   -0.932207    0.000000
      5          7           0        0.640659   -1.009352    0.000000
      6          1           0        2.096398    0.563840    0.000000
      7          1           0       -0.061493    2.064964    0.000000
 ---------------------------------------------------------------------

 SCF Done:  E(RB2PLYP) =  -257.761387433     A.U. after    1 cycles
 E2(B2PLYP) =    -0.2709569644D+00 E(B2PLYP) =    -0.25803234439757D+03
 E2(B2PLYP) =    -0.2709569644D+00 E(B2PLYP) =    -0.25803234439757D+03

 The electronic state is 1-A'.
 Alpha  occ. eigenvalues --  -14.98082 -14.95300 -14.93556 -14.90131 -10.73589
 Alpha  occ. eigenvalues --   -1.29820  -1.08690  -1.02992  -0.78611  -0.76881
 Alpha  occ. eigenvalues --   -0.69099  -0.58343  -0.58005  -0.46881  -0.39406
 Alpha  occ. eigenvalues --   -0.38880  -0.37781  -0.36572
 Alpha virt. eigenvalues --    0.01293   0.02234   0.04767   0.05339   0.06655
 Alpha virt. eigenvalues --    0.08838   0.10272   0.11891   0.14153   0.15755
 Alpha virt. eigenvalues --    0.17240   0.18884   0.19756   0.21851   0.23132

 Mulliken charges:
               1
     1  C    0.061455
     2  N   -0.295792
     3  N   -0.019432
     4  N   -0.021044
     5  N   -0.257719
     6  H    0.188247
     7  H    0.344286
 Sum of Mulliken charges =   0.00000

 Dipole moment (field-independent basis, Debye):
    X=              2.6479    Y=              4.9504    Z=              0.0000  Tot=              5.6140
 Quadrupole moment (field-independent basis, Debye-Ang):
   XX=            -29.7645   YY=            -27.1416   ZZ=            -29.1485
   XY=              1.9711   XZ=              0.0000   YZ=              0.0000

  Exact polarizability:  44.060   0.420  43.588   0.000   0.000  24.212
 Approx polarizability:  54.584  -0.167  57.700   0.000   0.000  28.961

                      1                      2                      3
                     A"                     A"                     A"
 Frequencies --    564.2834               684.6786               724.1163
 Red. masses --      1.9047                 1.9489                 7.7379
 Frc consts  --      0.3573                 0.5383                 2.3905
 IR Inten    --     82.3286                12.0740                 9.3861

                      4                      5                      6
                     A"                     A'                     A'
 Frequencies --    842.5742               964.3823              1007.3410
 Red. masses --      1.3120                 5.1048                 6.6008
 Frc consts  --      0.5488                 2.7972                 3.9464
 IR Inten    --     25.7036                 4.0967                 0.3700

                      7                      8                      9
                     A'                     A'                     A'
 Frequencies --   1051.6752              1067.7887              1151.8813
 Red. masses --      5.2020                 3.9122                 1.8189
 Frc consts  --      3.3899                 2.6281                 1.4219
 IR Inten    --     14.7243                31.2121                15.5844

                     10                     11                     12
                     A'                     A'                     A'
 Frequencies --   1261.8163              1269.3657              1466.9449
 Red. masses --      5.7284                 2.9600                 3.1466
 Frc consts  --      5.3737                 2.8100                 3.9895
 IR Inten    --     16.2848                 0.5152                10.9799

                     13                     14                     15
                     A'                     A'                     A'
 Frequencies --   1504.8711              3338.2320              3690.7664
 Red. masses --      2.9489                 1.1006                 1.0843
 Frc consts  --      3.9347                 7.2261                 8.7023
 IR Inten    --     19.3776                 2.6986               107.4149

 - Thermochemistry -
 -------------------
 Temperature   298.150 Kelvin.  Pressure   1.00000 Atm.
 Atom     1 has atomic number  6 and mass  12.00000

 Molecular mass:    70.02795 amu.
 Principal axes and moments of inertia in atomic units:
                           1         2         3
     Eigenvalues --   172.78361 175.46752 348.25113
           X            0.84540   0.53413   0.00000
           Y           -0.53413   0.84540   0.00000
           Z            0.00000   0.00000   1.00000
 This molecule is an asymmetric top.
 Rotational symmetry number  1.
 Rotational temperatures (Kelvin)      0.50128     0.49362     0.24871
 Rotational constants (GHZ):          10.44509    10.28533     5.18230
 Zero-point vibrational energy     123159.8 (Joules/Mol)
                                   29.43591 (Kcal/Mol)
 Warning -- explicit consideration of   1 degrees of freedom as
           vibrations may cause significant error
 Vibrational temperatures:    811.88   985.10  1041.84  1212.27  1387.53
          (Kelvin)           1449.34  1513.12  1536.31  1657.30  1815.47
                             1826.33  2110.60  2165.17  4802.97  5310.18

 Zero-point correction=                           0.046909 (Hartree/Particle)
 Thermal correction to Energy=                    0.050405
 Thermal correction to Enthalpy=                  0.051349
 Thermal correction to Gibbs Free Energy=         0.020795
 Sum of electronic and zero-point Energies=           -257.985435
 Sum of electronic and thermal Energies=              -257.981940
 Sum of electronic and thermal Enthalpies=            -257.980996
 Sum of electronic and thermal Free Energies=         -258.011550

                     E (Thermal)             CV                S
                      KCal/Mol        Cal/Mol-Kelvin    Cal/Mol-Kelvin
 Total                   31.629             11.443             64.306
 Electronic               0.000              0.000              0.000
 Translational            0.889              2.981             38.656
 Rotational               0.889              2.981             23.872
 Vibrational             29.852              5.482              1.778
 Vibration     1          0.920              1.109              0.515

 Normal termination of Gaussian 09 at Tue Nov 26 08:20:17 2013.
