 Gaussian 09, Revision D.01,
 Gaussian 09:  EM64L-G09RevD.01 24-Apr-2013

 ---------------------------------------------
 #B2PLYP/aug-cc-pVDZ opt=z-matrix freq density
 ---------------------------------------------

 -------------------------------------------------------------------
 1H-tetrazole CH2N4 casno=288948 state=1 config=1 method=56 basis=17
 -------------------------------------------------------------------
 Symbolic Z-matrix:
 Charge =  0 Multiplicity = 1

 SCF Done:  E(RB2PLYP) =  -257.789981794     A.U. after   13 cycles
 E2(B2PLYP) =    -0.2697470637D+00 E(B2PLYP) =    -0.25805972885720D+03
 SCF Done:  E(RB2PLYP) =  -257.790066933     A.U. after   12 cycles
 E2(B2PLYP) =    -0.2757150626D+00 E(B2PLYP) =    -0.25806578199520D+03
 SCF Done:  E(RB2PLYP) =  -257.789365620     A.U. after   11 cycles
 E2(B2PLYP) =    -0.2765695701D+00 E(B2PLYP) =    -0.25806593519055D+03
 SCF Done:  E(RB2PLYP) =  -257.789102492     A.U. after   12 cycles
 E2(B2PLYP) =    -0.2764147672D+00 E(B2PLYP) =    -0.25806551725887D+03
 SCF Done:  E(RB2PLYP) =  -257.789250233     A.U. after   10 cycles
 E2(B2PLYP) =    -0.2767188610D+00 E(B2PLYP) =    -0.25806596909363D+03
 SCF Done:  E(RB2PLYP) =  -257.789275047     A.U. after   11 cycles
 E2(B2PLYP) =    -0.2764256341D+00 E(B2PLYP) =    -0.25806570068122D+03
 SCF Done:  E(RB2PLYP) =  -257.789287138     A.U. after    9 cycles
 E2(B2PLYP) =    -0.2766840364D+00 E(B2PLYP) =    -0.25806597117470D+03
 SCF Done:  E(RB2PLYP) =  -257.789295558     A.U. after   10 cycles
 E2(B2PLYP) =    -0.2766040126D+00 E(B2PLYP) =    -0.25806589957092D+03
 SCF Done:  E(RB2PLYP) =  -257.789302490     A.U. after    8 cycles
 E2(B2PLYP) =    -0.2766690055D+00 E(B2PLYP) =    -0.25806597149578D+03
 SCF Done:  E(RB2PLYP) =  -257.789307113     A.U. after    7 cycles
 E2(B2PLYP) =    -0.2766643235D+00 E(B2PLYP) =    -0.25806597143627D+03
 SCF Done:  E(RB2PLYP) =  -257.789306054     A.U. after    9 cycles
 E2(B2PLYP) =    -0.2766653222D+00 E(B2PLYP) =    -0.25806597137643D+03
 SCF Done:  E(RB2PLYP) =  -257.789304822     A.U. after    6 cycles
 E2(B2PLYP) =    -0.2766667425D+00 E(B2PLYP) =    -0.25806597156409D+03
 SCF Done:  E(RB2PLYP) =  -257.789304930     A.U. after    7 cycles
 E2(B2PLYP) =    -0.2766666596D+00 E(B2PLYP) =    -0.25806597158914D+03
 SCF Done:  E(RB2PLYP) =  -257.789305239     A.U. after    7 cycles
 E2(B2PLYP) =    -0.2766663351D+00 E(B2PLYP) =    -0.25806597157384D+03
 Optimization completed.
    -- Stationary point found.
 Normal termination of Gaussian 09 at Mon Nov 25 20:31:26 2013.

 ----------------------------------------------------------------------
 #N Geom=AllCheck Guess=TCheck SCRF=Check GenChk RB2PLYP(FC)/Aug-CC-pVD
 Z Freq
 ----------------------------------------------------------------------

 Structure from the checkpoint file:  "/tmp/rdj3/g09-23219/Gau-20090.chk"
 -------------------------------------------------------------------
 1H-tetrazole CH2N4 casno=288948 state=1 config=1 method=56 basis=17
 -------------------------------------------------------------------
 Charge =  0 Multiplicity = 1

                         Standard orientation:
 ---------------------------------------------------------------------
 Center     Atomic      Atomic             Coordinates (Angstroms)
 Number     Number       Type             X           Y           Z
 ---------------------------------------------------------------------
      1          6           0        1.071843    0.237840    0.000000
      2          7           0        0.000000    1.058494    0.000000
      3          7           0       -1.125686    0.306589    0.000000
      4          7           0       -0.725618   -0.932515    0.000000
      5          7           0        0.640543   -1.012772    0.000000
      6          1           0        2.103575    0.566209    0.000000
      7          1           0       -0.059312    2.068171    0.000000
 ---------------------------------------------------------------------

 SCF Done:  E(RB2PLYP) =  -257.789305239     A.U. after    1 cycles
 E2(B2PLYP) =    -0.2766663366D+00 E(B2PLYP) =    -0.25806597157533D+03
 E2(B2PLYP) =    -0.2766663366D+00 E(B2PLYP) =    -0.25806597157533D+03

 The electronic state is 1-A'.
 Alpha  occ. eigenvalues --  -14.97353 -14.94783 -14.93195 -14.89751 -10.73376
 Alpha  occ. eigenvalues --   -1.29361  -1.08374  -1.02618  -0.78272  -0.76610
 Alpha  occ. eigenvalues --   -0.68679  -0.57962  -0.57698  -0.46724  -0.39133
 Alpha  occ. eigenvalues --   -0.38816  -0.37776  -0.36273
 Alpha virt. eigenvalues --   -0.00589   0.02182   0.02238   0.04988   0.05799
 Alpha virt. eigenvalues --    0.07816   0.07927   0.09493   0.10814   0.11770
 Alpha virt. eigenvalues --    0.12591   0.13738   0.15277   0.16252   0.17462

 Mulliken charges:
               1
     1  C    0.900631
     2  N    0.062130
     3  N   -0.138855
     4  N   -0.264561
     5  N   -0.269828
     6  H   -0.221604
     7  H   -0.067912
 Sum of Mulliken charges =   0.00000

 Dipole moment (field-independent basis, Debye):
    X=              2.5466    Y=              4.7813    Z=              0.0000  Tot=              5.4173
 Quadrupole moment (field-independent basis, Debye-Ang):
   XX=            -29.5495   YY=            -27.0281   ZZ=            -29.2027
   XY=              1.9149   XZ=              0.0000   YZ=              0.0000

  Exact polarizability:  46.473   0.577  45.815   0.000   0.000  26.669
 Approx polarizability:  58.311   0.186  60.776   0.000   0.000  33.021

                      1                      2                      3
                     A"                     A"                     A"
 Frequencies --    588.0712               688.2384               731.5661
 Red. masses --      1.7857                 1.9328                 8.1959
 Frc consts  --      0.3638                 0.5394                 2.5844
 IR Inten    --     77.6181                 8.5515                 8.1276

                      4                      5                      6
                     A"                     A'                     A'
 Frequencies --    848.0943               957.8981              1003.3740
 Red. masses --      1.3703                 4.6104                 6.4509
 Frc consts  --      0.5807                 2.4924                 3.8265
 IR Inten    --     19.8540                 3.8171                 0.2921

                      7                      8                      9
                     A'                     A'                     A'
 Frequencies --   1048.7604              1059.9515              1137.8772
 Red. masses --      5.2274                 3.3319                 1.9222
 Frc consts  --      3.3876                 2.2055                 1.4664
 IR Inten    --     13.6127                30.6509                13.9250

                     10                     11                     12
                     A'                     A'                     A'
 Frequencies --   1248.6291              1256.1175              1455.0147
 Red. masses --      3.9035                 4.2107                 3.3692
 Frc consts  --      3.5856                 3.9144                 4.2026
 IR Inten    --     10.8006                 1.6516                 9.4759

                     13                     14                     15
                     A'                     A'                     A'
 Frequencies --   1489.0647              3311.5046              3657.7525
 Red. masses --      2.9336                 1.1012                 1.0846
 Frc consts  --      3.8324                 7.1152                 8.5494
 IR Inten    --     17.1073                 2.4449                97.9998

 - Thermochemistry -
 -------------------
 Temperature   298.150 Kelvin.  Pressure   1.00000 Atm.
 Atom     1 has atomic number  6 and mass  12.00000

 Molecular mass:    70.02795 amu.
 Principal axes and moments of inertia in atomic units:
                           1         2         3
     Eigenvalues --   173.18885 176.10884 349.29769
           X            0.82398   0.56661   0.00000
           Y           -0.56661   0.82398   0.00000
           Z            0.00000   0.00000   1.00000
 This molecule is an asymmetric top.
 Rotational symmetry number  1.
 Rotational temperatures (Kelvin)      0.50011     0.49182     0.24797
 Rotational constants (GHZ):          10.42065    10.24787     5.16677
 Zero-point vibrational energy     122509.1 (Joules/Mol)
                                   29.28037 (Kcal/Mol)
 Warning -- explicit consideration of   1 degrees of freedom as
           vibrations may cause significant error
 Vibrational temperatures:    846.10   990.22  1052.56  1220.22  1378.20
          (Kelvin)           1443.63  1508.93  1525.03  1637.15  1796.50
                             1807.27  2093.44  2142.43  4764.51  5262.68

 Zero-point correction=                           0.046661 (Hartree/Particle)
 Thermal correction to Energy=                    0.050143
 Thermal correction to Enthalpy=                  0.051087
 Thermal correction to Gibbs Free Energy=         0.020551
 Sum of electronic and zero-point Energies=           -258.019310
 Sum of electronic and thermal Energies=              -258.015828
 Sum of electronic and thermal Enthalpies=            -258.014884
 Sum of electronic and thermal Free Energies=         -258.045421

                     E (Thermal)             CV                S
                      KCal/Mol        Cal/Mol-Kelvin    Cal/Mol-Kelvin
 Total                   31.465             11.418             64.270
 Electronic               0.000              0.000              0.000
 Translational            0.889              2.981             38.656
 Rotational               0.889              2.981             23.881
 Vibrational             29.688              5.457              1.733
 Vibration     1          0.945              1.057              0.471

 Normal termination of Gaussian 09 at Mon Nov 25 20:35:28 2013.
