 Gaussian 09, Revision D.01,
 Gaussian 09:  EM64L-G09RevD.01 24-Apr-2013

 -----------------------------------------
 #B2PLYP/cc-pVTZ opt=z-matrix freq density
 -----------------------------------------

 ------------------------------------------------------------------
 1H-tetrazole CH2N4 casno=288948 state=1 config=1 method=56 basis=6
 ------------------------------------------------------------------
 Symbolic Z-matrix:
 Charge =  0 Multiplicity = 1

 SCF Done:  E(RB2PLYP) =  -257.840391105     A.U. after   13 cycles
 E2(B2PLYP) =    -0.3136223058D+00 E(B2PLYP) =    -0.25815401341041D+03
 SCF Done:  E(RB2PLYP) =  -257.839789412     A.U. after   11 cycles
 E2(B2PLYP) =    -0.3175943948D+00 E(B2PLYP) =    -0.25815738380688D+03
 SCF Done:  E(RB2PLYP) =  -257.839342406     A.U. after   10 cycles
 E2(B2PLYP) =    -0.3181351201D+00 E(B2PLYP) =    -0.25815747752629D+03
 SCF Done:  E(RB2PLYP) =  -257.839341420     A.U. after   10 cycles
 E2(B2PLYP) =    -0.3180529500D+00 E(B2PLYP) =    -0.25815739437038D+03
 SCF Done:  E(RB2PLYP) =  -257.839172143     A.U. after    9 cycles
 E2(B2PLYP) =    -0.3183327349D+00 E(B2PLYP) =    -0.25815750487820D+03
 SCF Done:  E(RB2PLYP) =  -257.838976846     A.U. after   10 cycles
 E2(B2PLYP) =    -0.3183062339D+00 E(B2PLYP) =    -0.25815728308035D+03
 SCF Done:  E(RB2PLYP) =  -257.839164513     A.U. after    9 cycles
 E2(B2PLYP) =    -0.3183467226D+00 E(B2PLYP) =    -0.25815751123573D+03
 SCF Done:  E(RB2PLYP) =  -257.839249379     A.U. after   10 cycles
 E2(B2PLYP) =    -0.3182287331D+00 E(B2PLYP) =    -0.25815747811225D+03
 SCF Done:  E(RB2PLYP) =  -257.839157318     A.U. after    8 cycles
 E2(B2PLYP) =    -0.3183552066D+00 E(B2PLYP) =    -0.25815751252492D+03
 SCF Done:  E(RB2PLYP) =  -257.839215646     A.U. after   10 cycles
 E2(B2PLYP) =    -0.3182748891D+00 E(B2PLYP) =    -0.25815749053506D+03
 E2(B2PLYP) =    -0.3183628974D+00 E(B2PLYP) =    -0.25815751273407D+03
 SCF Done:  E(RB2PLYP) =  -257.839221646     A.U. after    9 cycles
 E2(B2PLYP) =    -0.3182899975D+00 E(B2PLYP) =    -0.25815751164360D+03
 SCF Done:  E(RB2PLYP) =  -257.839173245     A.U. after    7 cycles
 E2(B2PLYP) =    -0.3183397497D+00 E(B2PLYP) =    -0.25815751299515D+03
 SCF Done:  E(RB2PLYP) =  -257.839163023     A.U. after    8 cycles
 E2(B2PLYP) =    -0.3183500516D+00 E(B2PLYP) =    -0.25815751307501D+03
 SCF Done:  E(RB2PLYP) =  -257.839190262     A.U. after    8 cycles
 E2(B2PLYP) =    -0.3183227512D+00 E(B2PLYP) =    -0.25815751301293D+03
 SCF Done:  E(RB2PLYP) =  -257.839192235     A.U. after    6 cycles
 E2(B2PLYP) =    -0.3183207748D+00 E(B2PLYP) =    -0.25815751300949D+03
 SCF Done:  E(RB2PLYP) =  -257.839173981     A.U. after    6 cycles
 E2(B2PLYP) =    -0.3183391891D+00 E(B2PLYP) =    -0.25815751317057D+03
 SCF Done:  E(RB2PLYP) =  -257.839167702     A.U. after    8 cycles
 E2(B2PLYP) =    -0.3183454083D+00 E(B2PLYP) =    -0.25815751311001D+03
 SCF Done:  E(RB2PLYP) =  -257.839174180     A.U. after    5 cycles
 E2(B2PLYP) =    -0.3183389971D+00 E(B2PLYP) =    -0.25815751317738D+03
 SCF Done:  E(RB2PLYP) =  -257.839183439     A.U. after    8 cycles
 E2(B2PLYP) =    -0.3183296410D+00 E(B2PLYP) =    -0.25815751307976D+03
 Optimization completed.
    -- Stationary point found.
 Normal termination of Gaussian 09 at Tue Nov 26 08:48:42 2013.

 ----------------------------------------------------------------------
 #N Geom=AllCheck Guess=TCheck SCRF=Check GenChk RB2PLYP(FC)/CC-pVTZ Fr
 eq
 ----------------------------------------------------------------------

 Structure from the checkpoint file:  "/tmp/rdj3/g09-23219/Gau-11484.chk"
 ------------------------------------------------------------------
 1H-tetrazole CH2N4 casno=288948 state=1 config=1 method=56 basis=6
 ------------------------------------------------------------------
 Charge =  0 Multiplicity = 1

                         Standard orientation:
 ---------------------------------------------------------------------
 Center     Atomic      Atomic             Coordinates (Angstroms)
 Number     Number       Type             X           Y           Z
 ---------------------------------------------------------------------
      1          6           0        1.065033    0.235797    0.000000
      2          7           0        0.000000    1.053440    0.000000
      3          7           0       -1.119416    0.302457    0.000000
      4          7           0       -0.722536   -0.926326    0.000000
      5          7           0        0.639275   -1.005862    0.000000
      6          1           0        2.087932    0.562208    0.000000
      7          1           0       -0.059383    2.057046    0.000000
 ---------------------------------------------------------------------

 SCF Done:  E(RB2PLYP) =  -257.839183439     A.U. after    1 cycles
 E2(B2PLYP) =    -0.3183296414D+00 E(B2PLYP) =    -0.25815751308022D+03
 E2(B2PLYP) =    -0.3183296414D+00 E(B2PLYP) =    -0.25815751308022D+03

 The electronic state is 1-A'.
 Alpha  occ. eigenvalues --  -14.95695 -14.92934 -14.91248 -14.87762 -10.71621
 Alpha  occ. eigenvalues --   -1.29209  -1.07921  -1.02293  -0.77881  -0.76300
 Alpha  occ. eigenvalues --   -0.68601  -0.57751  -0.57742  -0.46386  -0.38885
 Alpha  occ. eigenvalues --   -0.38207  -0.37219  -0.36105
 Alpha virt. eigenvalues --    0.03494   0.05449   0.07465   0.09840   0.19315
 Alpha virt. eigenvalues --    0.21709   0.23827   0.30675   0.33022   0.36142
 Alpha virt. eigenvalues --    0.42275   0.44060   0.45593   0.47590   0.49013

 Mulliken charges:
               1
     1  C   -0.050722
     2  N   -0.015932
     3  N   -0.072690
     4  N   -0.075106
     5  N   -0.143168
     6  H    0.160431
     7  H    0.197187
 Sum of Mulliken charges =   0.00000

 Dipole moment (field-independent basis, Debye):
    X=              2.4448    Y=              4.7176    Z=              0.0000  Tot=              5.3135
 Quadrupole moment (field-independent basis, Debye-Ang):
   XX=            -29.0796   YY=            -26.4849   ZZ=            -28.4519
   XY=              1.8321   XZ=              0.0000   YZ=              0.0000

  Exact polarizability:  41.390   0.893  40.615   0.000   0.000  20.763
 Approx polarizability:  54.094   0.304  56.676   0.000   0.000  27.353

                      1                      2                      3
                     A"                     A"                     A"
 Frequencies --    586.1633               694.4389               741.9365
 Red. masses --      1.6964                 2.0617                 7.9079
 Frc consts  --      0.3434                 0.5858                 2.5648
 IR Inten    --     78.5155                 6.1739                 8.9272

                      4                      5                      6
                     A"                     A'                     A'
 Frequencies --    871.4683               958.4333              1008.7881
 Red. masses --      1.3728                 5.4247                 6.0719
 Frc consts  --      0.6143                 2.9359                 3.6406
 IR Inten    --     18.4952                 4.8714                 0.2567

                      7                      8                      9
                     A'                     A'                     A'
 Frequencies --   1038.1585              1060.2845              1147.4288
 Red. masses --      5.7641                 3.2867                 1.9641
 Frc consts  --      3.6602                 2.1770                 1.5236
 IR Inten    --     13.7567                28.5896                16.5517

                     10                     11                     12
                     A'                     A'                     A'
 Frequencies --   1254.7811              1264.0061              1456.5974
 Red. masses --      4.0147                 3.6942                 3.0018
 Frc consts  --      3.7242                 3.4775                 3.7524
 IR Inten    --     12.2085                 1.1963                 9.6761

                     13                     14                     15
                     A'                     A'                     A'
 Frequencies --   1498.1410              3304.2453              3667.8045
 Red. masses --      3.0749                 1.1007                 1.0840
 Frc consts  --      4.0661                 7.0802                 8.5916
 IR Inten    --     16.2391                 1.5571                96.1588

 - Thermochemistry -
 -------------------
 Temperature   298.150 Kelvin.  Pressure   1.00000 Atm.
 Atom     1 has atomic number  6 and mass  12.00000

 Molecular mass:    70.02795 amu.
 Principal axes and moments of inertia in atomic units:
                           1         2         3
     Eigenvalues --   171.14721 174.13470 345.28191
           X            0.85023   0.52642   0.00000
           Y           -0.52642   0.85023   0.00000
           Z            0.00000   0.00000   1.00000
 This molecule is an asymmetric top.
 Rotational symmetry number  1.
 Rotational temperatures (Kelvin)      0.50608     0.49740     0.25085
 Rotational constants (GHZ):          10.54496    10.36405     5.22686
 Zero-point vibrational energy     122932.3 (Joules/Mol)
                                   29.38152 (Kcal/Mol)
 Warning -- explicit consideration of   1 degrees of freedom as
           vibrations may cause significant error
 Vibrational temperatures:    843.36   999.14  1067.48  1253.85  1378.97
          (Kelvin)           1451.42  1493.68  1525.51  1650.89  1805.35
                             1818.62  2095.72  2155.49  4754.07  5277.15

 Zero-point correction=                           0.046822 (Hartree/Particle)
 Thermal correction to Energy=                    0.050292
 Thermal correction to Enthalpy=                  0.051237
 Thermal correction to Gibbs Free Energy=         0.020732
 Sum of electronic and zero-point Energies=           -258.110691
 Sum of electronic and thermal Energies=              -258.107221
 Sum of electronic and thermal Enthalpies=            -258.106277
 Sum of electronic and thermal Free Energies=         -258.136781

                     E (Thermal)             CV                S
                      KCal/Mol        Cal/Mol-Kelvin    Cal/Mol-Kelvin
 Total                   31.559             11.343             64.202
 Electronic               0.000              0.000              0.000
 Translational            0.889              2.981             38.656
 Rotational               0.889              2.981             23.846
 Vibrational             29.781              5.381              1.700
 Vibration     1          0.943              1.061              0.474

 Normal termination of Gaussian 09 at Tue Nov 26 09:02:46 2013.
