 Gaussian 09, Revision D.01,
 Gaussian 09:  EM64L-G09RevD.01 24-Apr-2013

 ----------------------------------------
 #B2PLYP/3-21G* opt=z-matrix freq density
 ----------------------------------------

 ------------------------------------------------------------------
 1H-tetrazole CH2N4 casno=288948 state=1 config=1 method=56 basis=8
 ------------------------------------------------------------------
 Symbolic Z-matrix:
 Charge =  0 Multiplicity = 1

 SCF Done:  E(RB2PLYP) =  -256.260695009     A.U. after   14 cycles
 E2(B2PLYP) =    -0.1794231221D+00 E(B2PLYP) =    -0.25644011813057D+03
 SCF Done:  E(RB2PLYP) =  -256.272830764     A.U. after   15 cycles
 E2(B2PLYP) =    -0.1902078509D+00 E(B2PLYP) =    -0.25646303861450D+03
 SCF Done:  E(RB2PLYP) =  -256.270541496     A.U. after   14 cycles
 E2(B2PLYP) =    -0.1946586630D+00 E(B2PLYP) =    -0.25646520015870D+03
 SCF Done:  E(RB2PLYP) =  -256.269151205     A.U. after   15 cycles
 E2(B2PLYP) =    -0.1948484881D+00 E(B2PLYP) =    -0.25646399969324D+03
 SCF Done:  E(RB2PLYP) =  -256.269746565     A.U. after   13 cycles
 E2(B2PLYP) =    -0.1950851468D+00 E(B2PLYP) =    -0.25646483171225D+03
 SCF Done:  E(RB2PLYP) =  -256.270688374     A.U. after   11 cycles
 E2(B2PLYP) =    -0.1950455897D+00 E(B2PLYP) =    -0.25646573396353D+03
 SCF Done:  E(RB2PLYP) =  -256.270729764     A.U. after   13 cycles
 E2(B2PLYP) =    -0.1948333573D+00 E(B2PLYP) =    -0.25646556312118D+03
 SCF Done:  E(RB2PLYP) =  -256.270548765     A.U. after   12 cycles
 E2(B2PLYP) =    -0.1952529737D+00 E(B2PLYP) =    -0.25646580173838D+03
 SCF Done:  E(RB2PLYP) =  -256.270434494     A.U. after   11 cycles
 E2(B2PLYP) =    -0.1953862618D+00 E(B2PLYP) =    -0.25646582075569D+03
 SCF Done:  E(RB2PLYP) =  -256.270658247     A.U. after   12 cycles
 E2(B2PLYP) =    -0.1950892638D+00 E(B2PLYP) =    -0.25646574751121D+03
 E2(B2PLYP) =    -0.1954098735D+00 E(B2PLYP) =    -0.25646582967577D+03
 SCF Done:  E(RB2PLYP) =  -256.270446257     A.U. after    9 cycles
 E2(B2PLYP) =    -0.1953855343D+00 E(B2PLYP) =    -0.25646583179087D+03
 SCF Done:  E(RB2PLYP) =  -256.270541818     A.U. after   11 cycles
 E2(B2PLYP) =    -0.1952895803D+00 E(B2PLYP) =    -0.25646583139806D+03
 SCF Done:  E(RB2PLYP) =  -256.270486627     A.U. after    9 cycles
 E2(B2PLYP) =    -0.1953464469D+00 E(B2PLYP) =    -0.25646583307361D+03
 SCF Done:  E(RB2PLYP) =  -256.270477997     A.U. after    9 cycles
 E2(B2PLYP) =    -0.1953551286D+00 E(B2PLYP) =    -0.25646583312612D+03
 SCF Done:  E(RB2PLYP) =  -256.270498984     A.U. after    9 cycles
 E2(B2PLYP) =    -0.1953341774D+00 E(B2PLYP) =    -0.25646583316134D+03
 SCF Done:  E(RB2PLYP) =  -256.270496584     A.U. after    8 cycles
 E2(B2PLYP) =    -0.1953366843D+00 E(B2PLYP) =    -0.25646583326814D+03
 SCF Done:  E(RB2PLYP) =  -256.270463608     A.U. after   11 cycles
 E2(B2PLYP) =    -0.1953686953D+00 E(B2PLYP) =    -0.25646583230319D+03
 SCF Done:  E(RB2PLYP) =  -256.270487044     A.U. after    8 cycles
 E2(B2PLYP) =    -0.1953463000D+00 E(B2PLYP) =    -0.25646583334372D+03
 SCF Done:  E(RB2PLYP) =  -256.270498944     A.U. after    8 cycles
 E2(B2PLYP) =    -0.1953343593D+00 E(B2PLYP) =    -0.25646583330322D+03
 Optimization completed.
    -- Stationary point found.
 Normal termination of Gaussian 09 at Tue Nov 26 09:06:48 2013.

 ----------------------------------------------------------------------
 #N Geom=AllCheck Guess=TCheck SCRF=Check GenChk RB2PLYP(FC)/3-21G* Fre
 q
 ----------------------------------------------------------------------

 Structure from the checkpoint file:  "/tmp/rdj3/g09-23219/Gau-15990.chk"
 ------------------------------------------------------------------
 1H-tetrazole CH2N4 casno=288948 state=1 config=1 method=56 basis=8
 ------------------------------------------------------------------
 Charge =  0 Multiplicity = 1

                         Standard orientation:
 ---------------------------------------------------------------------
 Center     Atomic      Atomic             Coordinates (Angstroms)
 Number     Number       Type             X           Y           Z
 ---------------------------------------------------------------------
      1          6           0        1.081409    0.263346    0.000000
      2          7           0        0.000000    1.091412    0.000000
      3          7           0       -1.180630    0.290514    0.000000
      4          7           0       -0.748108   -0.978635    0.000000
      5          7           0        0.711924   -1.016017    0.000000
      6          1           0        2.097394    0.608163    0.000000
      7          1           0       -0.068157    2.100841    0.000000
 ---------------------------------------------------------------------

 SCF Done:  E(RB2PLYP) =  -256.270498944     A.U. after    1 cycles
 E2(B2PLYP) =    -0.1953343580D+00 E(B2PLYP) =    -0.25646583330195D+03
 E2(B2PLYP) =    -0.1953343580D+00 E(B2PLYP) =    -0.25646583330195D+03

 The electronic state is 1-A'.
 Alpha  occ. eigenvalues --  -14.89401 -14.88179 -14.86271 -14.82362 -10.68262
 Alpha  occ. eigenvalues --   -1.27354  -1.06519  -1.03408  -0.76800  -0.75523
 Alpha  occ. eigenvalues --   -0.68413  -0.56283  -0.55678  -0.44782  -0.37811
 Alpha  occ. eigenvalues --   -0.37752  -0.36519  -0.36176
 Alpha virt. eigenvalues --    0.02405   0.07152   0.13487   0.16045   0.23000
 Alpha virt. eigenvalues --    0.26464   0.32788   0.42669   0.47210   0.76804
 Alpha virt. eigenvalues --    0.78805   0.89846   0.93526   1.03183   1.13289

 Mulliken charges:
               1
     1  C    0.318981
     2  N   -0.529424
     3  N   -0.029260
     4  N   -0.076441
     5  N   -0.329200
     6  H    0.273675
     7  H    0.371667
 Sum of Mulliken charges =   0.00000

 Dipole moment (field-independent basis, Debye):
    X=              2.4166    Y=              4.9051    Z=              0.0000  Tot=              5.4681
 Quadrupole moment (field-independent basis, Debye-Ang):
   XX=            -29.2641   YY=            -26.5919   ZZ=            -28.6872
   XY=              2.0183   XZ=              0.0000   YZ=              0.0000

  Exact polarizability:  35.154   1.405  34.902   0.000   0.000  11.234
 Approx polarizability:  51.068  -0.521  57.313   0.000   0.000  11.521

                      1                      2                      3
                     A"                     A"                     A"
 Frequencies --    615.8068               671.9057               677.3051
 Red. masses --      2.5539                 1.4549                 7.6948
 Frc consts  --      0.5706                 0.3870                 2.0798
 IR Inten    --     97.6801                49.2962                14.0254

                      4                      5                      6
                     A'                     A'                     A"
 Frequencies --    735.2636               833.8237               915.7806
 Red. masses --     10.6776                 6.7445                 1.3731
 Frc consts  --      3.4010                 2.7628                 0.6785
 IR Inten    --     11.1251                15.6181                17.2736

                      7                      8                      9
                     A'                     A'                     A'
 Frequencies --    956.2521               999.7364              1021.9967
 Red. masses --      4.7377                 7.4736                12.0921
 Frc consts  --      2.5525                 4.4010                 7.4414
 IR Inten    --      8.2946                 6.4923                 0.0156

                     10                     11                     12
                     A'                     A'                     A'
 Frequencies --   1134.8530              1208.4293              1356.0582
 Red. masses --      2.1378                 2.1854                 2.4095
 Frc consts  --      1.6222                 1.8803                 2.6106
 IR Inten    --     11.7469                10.6360                 4.8809

                     13                     14                     15
                     A'                     A'                     A'
 Frequencies --   1427.2559              3343.0782              3603.7029
 Red. masses --      1.9719                 1.0988                 1.0847
 Frc consts  --      2.3667                 7.2354                 8.2998
 IR Inten    --     42.7570                 2.2708               104.7833

 - Thermochemistry -
 -------------------
 Temperature   298.150 Kelvin.  Pressure   1.00000 Atm.
 Atom     1 has atomic number  6 and mass  12.00000

 Molecular mass:    70.02795 amu.
 Principal axes and moments of inertia in atomic units:
                           1         2         3
     Eigenvalues --   183.03019 188.87663 371.90682
           X            0.99251   0.12219   0.00000
           Y           -0.12219   0.99251   0.00000
           Z            0.00000   0.00000   1.00000
 This molecule is an asymmetric top.
 Rotational symmetry number  1.
 Rotational temperatures (Kelvin)      0.47322     0.45857     0.23289
 Rotational constants (GHZ):           9.86035     9.55513     4.85267
 Zero-point vibrational energy     116643.4 (Joules/Mol)
                                   27.87843 (Kcal/Mol)
 Warning -- explicit consideration of   1 degrees of freedom as
           vibrations may cause significant error
 Vibrational temperatures:    886.01   966.72   974.49  1057.88  1199.68
          (Kelvin)           1317.60  1375.83  1438.40  1470.42  1632.80
                             1738.66  1951.06  2053.50  4809.94  5184.92

 Zero-point correction=                           0.044427 (Hartree/Particle)
 Thermal correction to Energy=                    0.048045
 Thermal correction to Enthalpy=                  0.048989
 Thermal correction to Gibbs Free Energy=         0.018189
 Sum of electronic and zero-point Energies=           -256.421406
 Sum of electronic and thermal Energies=              -256.417788
 Sum of electronic and thermal Enthalpies=            -256.416844
 Sum of electronic and thermal Free Energies=         -256.447644

                     E (Thermal)             CV                S
                      KCal/Mol        Cal/Mol-Kelvin    Cal/Mol-Kelvin
 Total                   30.149             12.385             64.824
 Electronic               0.000              0.000              0.000
 Translational            0.889              2.981             38.656
 Rotational               0.889              2.981             24.068
 Vibrational             28.371              6.423              2.101
 Vibration     1          0.975              0.998              0.423

 Normal termination of Gaussian 09 at Tue Nov 26 09:07:01 2013.
