 Gaussian 09, Revision D.01,
 Gaussian 09:  EM64L-G09RevD.01 24-Apr-2013

 --------------------------------
 #B2PLYP/6-311G* opt freq density
 --------------------------------

 ------------------------------------------------------------------
 1H-tetrazole CH2N4 casno=288948 state=1 config=1 method=56 basis=7
 ------------------------------------------------------------------
 Symbolic Z-matrix:
 Charge =  0 Multiplicity = 1

 SCF Done:  E(RB2PLYP) =  -257.805233368     A.U. after   14 cycles
 E2(B2PLYP) =    -0.2707707708D+00 E(B2PLYP) =    -0.25807600413924D+03
 SCF Done:  E(RB2PLYP) =  -257.804831215     A.U. after   12 cycles
 E2(B2PLYP) =    -0.2752865097D+00 E(B2PLYP) =    -0.25808011772494D+03
 SCF Done:  E(RB2PLYP) =  -257.804256103     A.U. after   11 cycles
 E2(B2PLYP) =    -0.2759678728D+00 E(B2PLYP) =    -0.25808022397627D+03
 SCF Done:  E(RB2PLYP) =  -257.804137546     A.U. after   10 cycles
 E2(B2PLYP) =    -0.2760949961D+00 E(B2PLYP) =    -0.25808023254227D+03
 SCF Done:  E(RB2PLYP) =  -257.804198963     A.U. after    9 cycles
 E2(B2PLYP) =    -0.2760387090D+00 E(B2PLYP) =    -0.25808023767156D+03
 SCF Done:  E(RB2PLYP) =  -257.804230138     A.U. after    8 cycles
 E2(B2PLYP) =    -0.2760083323D+00 E(B2PLYP) =    -0.25808023846991D+03
 Optimization completed.
    -- Stationary point found.
 Normal termination of Gaussian 09 at Mon Dec 16 15:48:19 2013.

 ----------------------------------------------------------------------
 #N Geom=AllCheck Guess=TCheck SCRF=Check GenChk RB2PLYP(FC)/6-311G(d)
 Freq
 ----------------------------------------------------------------------

 Structure from the checkpoint file:  "/tmp/rdj3/g09-18029/Gau-9640.chk"
 ------------------------------------------------------------------
 1H-tetrazole CH2N4 casno=288948 state=1 config=1 method=56 basis=7
 ------------------------------------------------------------------
 Charge =  0 Multiplicity = 1

                         Standard orientation:
 ---------------------------------------------------------------------
 Center     Atomic      Atomic             Coordinates (Angstroms)
 Number     Number       Type             X           Y           Z
 ---------------------------------------------------------------------
      1          6           0        1.067642    0.235407    0.000000
      2          7           0        0.000000    1.055667    0.000000
      3          7           0       -1.122081    0.302919    0.000000
      4          7           0       -0.723630   -0.927432    0.000000
      5          7           0        0.640442   -1.007497    0.000000
      6          1           0        2.093842    0.561642    0.000000
      7          1           0       -0.062806    2.060311    0.000000
 ---------------------------------------------------------------------

 SCF Done:  E(RB2PLYP) =  -257.804230138     A.U. after    1 cycles
 E2(B2PLYP) =    -0.2760083330D+00 E(B2PLYP) =    -0.25808023847070D+03
 E2(B2PLYP) =    -0.2760083330D+00 E(B2PLYP) =    -0.25808023847070D+03

 The electronic state is 1-A'.
 Alpha  occ. eigenvalues --  -14.95414 -14.92501 -14.90676 -14.87267 -10.71672
 Alpha  occ. eigenvalues --   -1.29357  -1.08041  -1.02468  -0.78058  -0.76328
 Alpha  occ. eigenvalues --   -0.68740  -0.57866  -0.57563  -0.46294  -0.38778
 Alpha  occ. eigenvalues --   -0.38128  -0.37077  -0.36081
 Alpha virt. eigenvalues --    0.03690   0.06082   0.07876   0.10327   0.23743
 Alpha virt. eigenvalues --    0.24676   0.27957   0.34435   0.40004   0.45499
 Alpha virt. eigenvalues --    0.48697   0.50402   0.57246   0.63394   0.63984

 Mulliken charges:
               1
     1  C    0.109801
     2  N   -0.421600
     3  N   -0.014536
     4  N   -0.087901
     5  N   -0.226295
     6  H    0.260034
     7  H    0.380498
 Sum of Mulliken charges =   0.00000

 Dipole moment (field-independent basis, Debye):
    X=              2.5045    Y=              4.8386    Z=              0.0000  Tot=              5.4484
 Quadrupole moment (field-independent basis, Debye-Ang):
   XX=            -29.0509   YY=            -26.4628   ZZ=            -28.4932
   XY=              1.8283   XZ=              0.0000   YZ=              0.0000

  Exact polarizability:  38.658   1.037  38.010   0.000   0.000  17.345
 Approx polarizability:  51.058   0.212  54.039   0.000   0.000  22.034

                      1                      2                      3
                     A"                     A"                     A"
 Frequencies --    588.3879               696.5921               736.7584
 Red. masses --      1.9262                 1.8834                 7.2456
 Frc consts  --      0.3929                 0.5385                 2.3173
 IR Inten    --     88.2751                12.6936                10.4661

                      4                      5                      6
                     A"                     A'                     A'
 Frequencies --    848.7978               962.5948              1014.6349
 Red. masses --      1.3491                 5.2922                 6.6749
 Frc consts  --      0.5727                 2.8892                 4.0487
 IR Inten    --     22.4486                 5.0118                 0.1752

                      7                      8                      9
                     A'                     A'                     A'
 Frequencies --   1045.0610              1070.4105              1151.8050
 Red. masses --      5.3371                 3.5660                 1.9148
 Frc consts  --      3.4343                 2.4073                 1.4967
 IR Inten    --     15.1992                28.7851                16.5274

                     10                     11                     12
                     A'                     A'                     A'
 Frequencies --   1265.2281              1269.2491              1467.9774
 Red. masses --      4.4242                 3.6377                 3.3409
 Frc consts  --      4.1727                 3.4527                 4.2418
 IR Inten    --     14.6521                 1.3783                 8.8224

                     13                     14                     15
                     A'                     A'                     A'
 Frequencies --   1513.8273              3310.5135              3693.0442
 Red. masses --      2.5981                 1.1007                 1.0838
 Frc consts  --      3.5079                 7.1076                 8.7092
 IR Inten    --     20.4817                 0.6957                82.7489

 - Thermochemistry -
 -------------------
 Temperature   298.150 Kelvin.  Pressure   1.00000 Atm.
 Atom     1 has atomic number  6 and mass  12.00000

 Molecular mass:    70.02795 amu.
 Principal axes and moments of inertia in atomic units:
                           1         2         3
     Eigenvalues --   171.67566 174.94058 346.61624
           X            0.85952   0.51110   0.00000
           Y           -0.51110   0.85952   0.00000
           Z            0.00000   0.00000   1.00000
 This molecule is an asymmetric top.
 Rotational symmetry number  1.
 Rotational temperatures (Kelvin)      0.50452     0.49510     0.24988
 Rotational constants (GHZ):          10.51250    10.31631     5.20674
 Zero-point vibrational energy     123424.0 (Joules/Mol)
                                   29.49904 (Kcal/Mol)
 Warning -- explicit consideration of   1 degrees of freedom as
           vibrations may cause significant error
 Vibrational temperatures:    846.56  1002.24  1060.03  1221.23  1384.96
          (Kelvin)           1459.83  1503.61  1540.08  1657.19  1820.38
                             1826.16  2112.09  2178.06  4763.08  5313.46

 Zero-point correction=                           0.047010 (Hartree/Particle)
 Thermal correction to Energy=                    0.050479
 Thermal correction to Enthalpy=                  0.051424
 Thermal correction to Gibbs Free Energy=         0.020914
 Sum of electronic and zero-point Energies=           -258.033229
 Sum of electronic and thermal Energies=              -258.029759
 Sum of electronic and thermal Enthalpies=            -258.028815
 Sum of electronic and thermal Free Energies=         -258.059325

                     E (Thermal)             CV                S
                      KCal/Mol        Cal/Mol-Kelvin    Cal/Mol-Kelvin
 Total                   31.676             11.330             64.213
 Electronic               0.000              0.000              0.000
 Translational            0.889              2.981             38.656
 Rotational               0.889              2.981             23.858
 Vibrational             29.899              5.368              1.699
 Vibration     1          0.946              1.057              0.470

 Optimization completed.
    -- Stationary point found.
 Normal termination of Gaussian 09 at Mon Dec 16 15:49:26 2013.
