 Gaussian 09, Revision D.01,
 Gaussian 09:  EM64L-G09RevD.01 24-Apr-2013

 ---------------------------------------
 #B2PLYP/6-31G opt=z-matrix freq density
 ---------------------------------------

 ------------------------------------------------------------------
 1H-tetrazole CH2N4 casno=288948 state=1 config=1 method=56 basis=9
 ------------------------------------------------------------------
 Symbolic Z-matrix:
 Charge =  0 Multiplicity = 1

 SCF Done:  E(RB2PLYP) =  -257.605513748     A.U. after   14 cycles
 E2(B2PLYP) =    -0.1814968193D+00 E(B2PLYP) =    -0.25778701056719D+03
 SCF Done:  E(RB2PLYP) =  -257.611559066     A.U. after   14 cycles
 E2(B2PLYP) =    -0.1922621446D+00 E(B2PLYP) =    -0.25780382121009D+03
 SCF Done:  E(RB2PLYP) =  -257.609480162     A.U. after   13 cycles
 E2(B2PLYP) =    -0.1951602197D+00 E(B2PLYP) =    -0.25780464038204D+03
 SCF Done:  E(RB2PLYP) =  -257.608837831     A.U. after   13 cycles
 E2(B2PLYP) =    -0.1949682197D+00 E(B2PLYP) =    -0.25780380605103D+03
 SCF Done:  E(RB2PLYP) =  -257.609209850     A.U. after   12 cycles
 E2(B2PLYP) =    -0.1957328447D+00 E(B2PLYP) =    -0.25780494269437D+03
 SCF Done:  E(RB2PLYP) =  -257.609012798     A.U. after   13 cycles
 E2(B2PLYP) =    -0.1954221912D+00 E(B2PLYP) =    -0.25780443498876D+03
 SCF Done:  E(RB2PLYP) =  -257.609196327     A.U. after   11 cycles
 E2(B2PLYP) =    -0.1957721542D+00 E(B2PLYP) =    -0.25780496848136D+03
 SCF Done:  E(RB2PLYP) =  -257.609741309     A.U. after   12 cycles
 E2(B2PLYP) =    -0.1950877143D+00 E(B2PLYP) =    -0.25780482902341D+03
 SCF Done:  E(RB2PLYP) =  -257.609197171     A.U. after   11 cycles
 E2(B2PLYP) =    -0.1957749057D+00 E(B2PLYP) =    -0.25780497207637D+03
 SCF Done:  E(RB2PLYP) =  -257.609248021     A.U. after    9 cycles
 E2(B2PLYP) =    -0.1957255139D+00 E(B2PLYP) =    -0.25780497353527D+03
 SCF Done:  E(RB2PLYP) =  -257.609785784     A.U. after   12 cycles
 E2(B2PLYP) =    -0.1951396229D+00 E(B2PLYP) =    -0.25780492540657D+03
 SCF Done:  E(RB2PLYP) =  -257.609274367     A.U. after    9 cycles
 E2(B2PLYP) =    -0.1956996863D+00 E(B2PLYP) =    -0.25780497405295D+03
 SCF Done:  E(RB2PLYP) =  -257.609282202     A.U. after    9 cycles
 E2(B2PLYP) =    -0.1956919101D+00 E(B2PLYP) =    -0.25780497411224D+03
 Optimization completed.
    -- Stationary point found.
 Normal termination of Gaussian 09 at Tue Nov 26 09:07:41 2013.

 ----------------------------------------------------------------------
 #N Geom=AllCheck Guess=TCheck SCRF=Check GenChk RB2PLYP(FC)/6-31G Freq
 ----------------------------------------------------------------------

 Structure from the checkpoint file:  "/tmp/rdj3/g09-23219/Gau-18200.chk"
 ------------------------------------------------------------------
 1H-tetrazole CH2N4 casno=288948 state=1 config=1 method=56 basis=9
 ------------------------------------------------------------------
 Charge =  0 Multiplicity = 1

                         Standard orientation:
 ---------------------------------------------------------------------
 Center     Atomic      Atomic             Coordinates (Angstroms)
 Number     Number       Type             X           Y           Z
 ---------------------------------------------------------------------
      1          6           0        1.086719    0.257206    0.000000
      2          7           0        0.000000    1.078401    0.000000
      3          7           0       -1.159435    0.297624    0.000000
      4          7           0       -0.742030   -0.961074    0.000000
      5          7           0        0.678180   -1.016670    0.000000
      6          1           0        2.109555    0.585721    0.000000
      7          1           0       -0.066877    2.083073    0.000000
 ---------------------------------------------------------------------

 SCF Done:  E(RB2PLYP) =  -257.609282202     A.U. after    1 cycles
 E2(B2PLYP) =    -0.1956919102D+00 E(B2PLYP) =    -0.25780497411232D+03
 E2(B2PLYP) =    -0.1956919102D+00 E(B2PLYP) =    -0.25780497411232D+03

 The electronic state is 1-A'.
 Alpha  occ. eigenvalues --  -14.97878 -14.96787 -14.94824 -14.91387 -10.74842
 Alpha  occ. eigenvalues --   -1.30310  -1.08732  -1.04705  -0.78589  -0.76929
 Alpha  occ. eigenvalues --   -0.69387  -0.58085  -0.57335  -0.45920  -0.39276
 Alpha  occ. eigenvalues --   -0.38446  -0.37713  -0.37111
 Alpha virt. eigenvalues --    0.01296   0.05734   0.10433   0.14853   0.21633
 Alpha virt. eigenvalues --    0.24185   0.30697   0.36792   0.45441   0.60065
 Alpha virt. eigenvalues --    0.62484   0.69890   0.74109   0.74957   0.76442

 Mulliken charges:
               1
     1  C    0.295447
     2  N   -0.554256
     3  N    0.018226
     4  N   -0.090807
     5  N   -0.283564
     6  H    0.231888
     7  H    0.383066
 Sum of Mulliken charges =   0.00000

 Dipole moment (field-independent basis, Debye):
    X=              2.7091    Y=              5.1584    Z=              0.0000  Tot=              5.8265
 Quadrupole moment (field-independent basis, Debye-Ang):
   XX=            -30.0251   YY=            -27.5406   ZZ=            -28.8934
   XY=              2.0876   XZ=              0.0000   YZ=              0.0000

  Exact polarizability:  38.072   1.187  37.650   0.000   0.000  13.804
 Approx polarizability:  52.431  -0.233  57.034   0.000   0.000  14.589

                      1                      2                      3
                     A"                     A"                     A"
 Frequencies --    653.3838               700.5294               709.4980
 Red. masses --      4.5102                 5.3972                 1.2579
 Frc consts  --      1.1344                 1.5605                 0.3731
 IR Inten    --     36.1095                 8.1845               124.8637

                      4                      5                      6
                     A'                     A"                     A'
 Frequencies --    792.5816               866.4980               896.4523
 Red. masses --      9.8323                 1.3652                 6.3686
 Frc consts  --      3.6391                 0.6039                 3.0154
 IR Inten    --      9.4809                20.3658                18.2226

                      7                      8                      9
                     A'                     A'                     A'
 Frequencies --    994.0481              1022.6066              1111.4517
 Red. masses --      6.2014                 5.4840                 5.7474
 Frc consts  --      3.6104                 3.3788                 4.1831
 IR Inten    --      4.4727                10.8749                 8.0994

                     10                     11                     12
                     A'                     A'                     A'
 Frequencies --   1162.3156              1228.7323              1403.8392
 Red. masses --      2.1481                 2.4933                 2.8034
 Frc consts  --      1.7099                 2.2179                 3.2551
 IR Inten    --     15.0294                 4.1402                 3.7446

                     13                     14                     15
                     A'                     A'                     A'
 Frequencies --   1473.0697              3369.1369              3712.9171
 Red. masses --      1.9294                 1.1016                 1.0847
 Frc consts  --      2.4667                 7.3677                 8.8104
 IR Inten    --     40.8433                 4.5703               107.2626

 - Thermochemistry -
 -------------------
 Temperature   298.150 Kelvin.  Pressure   1.00000 Atm.
 Atom     1 has atomic number  6 and mass  12.00000

 Molecular mass:    70.02795 amu.
 Principal axes and moments of inertia in atomic units:
                           1         2         3
     Eigenvalues --   179.74733 184.22517 363.97249
           X            0.99548   0.09502   0.00000
           Y           -0.09502   0.99548   0.00000
           Z            0.00000   0.00000   1.00000
 This molecule is an asymmetric top.
 Rotational symmetry number  1.
 Rotational temperatures (Kelvin)      0.48186     0.47015     0.23797
 Rotational constants (GHZ):          10.04043     9.79639     4.95845
 Zero-point vibrational energy     120207.1 (Joules/Mol)
                                   28.73019 (Kcal/Mol)
 Vibrational temperatures:    940.07  1007.90  1020.81  1140.35  1246.70
          (Kelvin)           1289.79  1430.21  1471.30  1599.13  1672.31
                             1767.87  2019.81  2119.42  4847.43  5342.05

 Zero-point correction=                           0.045784 (Hartree/Particle)
 Thermal correction to Energy=                    0.049310
 Thermal correction to Enthalpy=                  0.050254
 Thermal correction to Gibbs Free Energy=         0.019610
 Sum of electronic and zero-point Energies=           -257.759190
 Sum of electronic and thermal Energies=              -257.755664
 Sum of electronic and thermal Enthalpies=            -257.754720
 Sum of electronic and thermal Free Energies=         -257.785364

                     E (Thermal)             CV                S
                      KCal/Mol        Cal/Mol-Kelvin    Cal/Mol-Kelvin
 Total                   30.943             11.849             64.497
 Electronic               0.000              0.000              0.000
 Translational            0.889              2.981             38.656
 Rotational               0.889              2.981             24.003
 Vibrational             29.165              5.887              1.838

 Normal termination of Gaussian 09 at Tue Nov 26 09:07:56 2013.
