 Gaussian 09, Revision D.01,
 Gaussian 09:  EM64L-G09RevD.01 24-Apr-2013

 --------------------------------------
 #B2PLYP/TZVP opt=z-matrix freq density
 --------------------------------------

 -------------------------------------------------------------------
 1H-tetrazole CH2N4 casno=288948 state=1 config=1 method=56 basis=32
 -------------------------------------------------------------------
 Symbolic Z-matrix:
 Charge =  0 Multiplicity = 1

 SCF Done:  E(RB2PLYP) =  -257.829245132     A.U. after   14 cycles
 E2(B2PLYP) =    -0.2746852984D+00 E(B2PLYP) =    -0.25810393043008D+03
 SCF Done:  E(RB2PLYP) =  -257.828799629     A.U. after   12 cycles
 E2(B2PLYP) =    -0.2788930309D+00 E(B2PLYP) =    -0.25810769266018D+03
 SCF Done:  E(RB2PLYP) =  -257.828191681     A.U. after   11 cycles
 E2(B2PLYP) =    -0.2796152360D+00 E(B2PLYP) =    -0.25810780691736D+03
 SCF Done:  E(RB2PLYP) =  -257.827863612     A.U. after   11 cycles
 E2(B2PLYP) =    -0.2797135284D+00 E(B2PLYP) =    -0.25810757714052D+03
 SCF Done:  E(RB2PLYP) =  -257.828096783     A.U. after    9 cycles
 E2(B2PLYP) =    -0.2797306937D+00 E(B2PLYP) =    -0.25810782747622D+03
 SCF Done:  E(RB2PLYP) =  -257.828105060     A.U. after   11 cycles
 E2(B2PLYP) =    -0.2796102839D+00 E(B2PLYP) =    -0.25810771534365D+03
 SCF Done:  E(RB2PLYP) =  -257.828104962     A.U. after    9 cycles
 E2(B2PLYP) =    -0.2797237129D+00 E(B2PLYP) =    -0.25810782867497D+03
 SCF Done:  E(RB2PLYP) =  -257.828140060     A.U. after   10 cycles
 E2(B2PLYP) =    -0.2796872131D+00 E(B2PLYP) =    -0.25810782727346D+03
 SCF Done:  E(RB2PLYP) =  -257.828121007     A.U. after    9 cycles
 E2(B2PLYP) =    -0.2797087829D+00 E(B2PLYP) =    -0.25810782978985D+03
 SCF Done:  E(RB2PLYP) =  -257.828172371     A.U. after   10 cycles
 E2(B2PLYP) =    -0.2796545529D+00 E(B2PLYP) =    -0.25810782692346D+03
 E2(B2PLYP) =    -0.2797005288D+00 E(B2PLYP) =    -0.25810782997565D+03
 E2(B2PLYP) =    -0.2796265649D+00 E(B2PLYP) =    -0.25810782874630D+03
 E2(B2PLYP) =    -0.2796931630D+00 E(B2PLYP) =    -0.25810782993302D+03
 SCF Done:  E(RB2PLYP) =  -257.828120136     A.U. after    8 cycles
 E2(B2PLYP) =    -0.2797097134D+00 E(B2PLYP) =    -0.25810782984972D+03
 SCF Done:  E(RB2PLYP) =  -257.828112328     A.U. after    7 cycles
 E2(B2PLYP) =    -0.2797174876D+00 E(B2PLYP) =    -0.25810782981536D+03
 SCF Done:  E(RB2PLYP) =  -257.828117294     A.U. after    8 cycles
 E2(B2PLYP) =    -0.2797126008D+00 E(B2PLYP) =    -0.25810782989511D+03
 SCF Done:  E(RB2PLYP) =  -257.828133523     A.U. after    8 cycles
 E2(B2PLYP) =    -0.2796964563D+00 E(B2PLYP) =    -0.25810782997905D+03
 SCF Done:  E(RB2PLYP) =  -257.828141392     A.U. after    8 cycles
 E2(B2PLYP) =    -0.2796886162D+00 E(B2PLYP) =    -0.25810783000827D+03
 SCF Done:  E(RB2PLYP) =  -257.828137701     A.U. after    7 cycles
 E2(B2PLYP) =    -0.2796923147D+00 E(B2PLYP) =    -0.25810783001611D+03
 SCF Done:  E(RB2PLYP) =  -257.828148079     A.U. after    8 cycles
 E2(B2PLYP) =    -0.2796818390D+00 E(B2PLYP) =    -0.25810782991753D+03
 SCF Done:  E(RB2PLYP) =  -257.828138393     A.U. after    6 cycles
 E2(B2PLYP) =    -0.2796916380D+00 E(B2PLYP) =    -0.25810783003057D+03
 SCF Done:  E(RB2PLYP) =  -257.828146099     A.U. after    7 cycles
 E2(B2PLYP) =    -0.2796839089D+00 E(B2PLYP) =    -0.25810783000771D+03
 Optimization completed.
    -- Stationary point found.
 Normal termination of Gaussian 09 at Tue Nov 26 08:12:44 2013.

 ---------------------------------------------------------------------
 #N Geom=AllCheck Guess=TCheck SCRF=Check GenChk RB2PLYP(FC)/TZVP Freq
 ---------------------------------------------------------------------

 Structure from the checkpoint file:  "/tmp/rdj3/g09-23219/Gau-3887.chk"
 -------------------------------------------------------------------
 1H-tetrazole CH2N4 casno=288948 state=1 config=1 method=56 basis=32
 -------------------------------------------------------------------
 Charge =  0 Multiplicity = 1

                         Standard orientation:
 ---------------------------------------------------------------------
 Center     Atomic      Atomic             Coordinates (Angstroms)
 Number     Number       Type             X           Y           Z
 ---------------------------------------------------------------------
      1          6           0        1.066375    0.236734    0.000000
      2          7           0        0.000000    1.055227    0.000000
      3          7           0       -1.121956    0.300507    0.000000
      4          7           0       -0.723103   -0.927891    0.000000
      5          7           0        0.641307   -1.005327    0.000000
      6          1           0        2.090666    0.561583    0.000000
      7          1           0       -0.062656    2.060405    0.000000
 ---------------------------------------------------------------------

 SCF Done:  E(RB2PLYP) =  -257.828146099     A.U. after    1 cycles
 E2(B2PLYP) =    -0.2796839074D+00 E(B2PLYP) =    -0.25810783000619D+03
 E2(B2PLYP) =    -0.2796839074D+00 E(B2PLYP) =    -0.25810783000619D+03

 The electronic state is 1-A'.
 Alpha  occ. eigenvalues --  -14.96120 -14.93405 -14.91622 -14.88149 -10.72093
 Alpha  occ. eigenvalues --   -1.30012  -1.08534  -1.03085  -0.78439  -0.76873
 Alpha  occ. eigenvalues --   -0.69179  -0.58299  -0.58062  -0.46810  -0.39311
 Alpha  occ. eigenvalues --   -0.38624  -0.37604  -0.36665
 Alpha virt. eigenvalues --    0.02776   0.04966   0.06840   0.10451   0.15474
 Alpha virt. eigenvalues --    0.16715   0.22450   0.24606   0.28662   0.32090
 Alpha virt. eigenvalues --    0.34021   0.37697   0.39419   0.40156   0.41907

 Mulliken charges:
               1
     1  C   -0.102995
     2  N   -0.098290
     3  N   -0.067538
     4  N   -0.078930
     5  N   -0.060252
     6  H    0.142395
     7  H    0.265610
 Sum of Mulliken charges =   0.00000

 Dipole moment (field-independent basis, Debye):
    X=              2.5654    Y=              4.9044    Z=              0.0000  Tot=              5.5348
 Quadrupole moment (field-independent basis, Debye-Ang):
   XX=            -29.5873   YY=            -26.9952   ZZ=            -28.7419
   XY=              1.8974   XZ=              0.0000   YZ=              0.0000

  Exact polarizability:  41.767   0.779  41.268   0.000   0.000  21.981
 Approx polarizability:  52.730   0.054  55.979   0.000   0.000  27.022

                      1                      2                      3
                     A"                     A"                     A"
 Frequencies --    539.6533               687.0872               724.0801
 Red. masses --      2.0514                 1.9249                 6.8714
 Frc consts  --      0.3520                 0.5354                 2.1226
 IR Inten    --     70.4865                13.5295                10.1287

                      4                      5                      6
                     A"                     A'                     A'
 Frequencies --    831.3059               950.8377              1007.8076
 Red. masses --      1.2871                 6.0359                 6.4815
 Frc consts  --      0.5241                 3.2152                 3.8787
 IR Inten    --     28.6662                 5.8510                 0.1191

                      7                      8                      9
                     A'                     A'                     A'
 Frequencies --   1025.2572              1060.0689              1150.3134
 Red. masses --      5.7543                 3.5087                 1.9302
 Frc consts  --      3.5637                 2.3231                 1.5048
 IR Inten    --     16.3292                27.9775                17.3446

                     10                     11                     12
                     A'                     A'                     A'
 Frequencies --   1252.1468              1265.4002              1455.2154
 Red. masses --      6.2387                 2.6984                 3.0222
 Frc consts  --      5.7631                 2.5457                 3.7707
 IR Inten    --     16.1498                 0.7040                10.1020

                     13                     14                     15
                     A'                     A'                     A'
 Frequencies --   1501.0473              3314.5190              3667.9861
 Red. masses --      2.8128                 1.1007                 1.0840
 Frc consts  --      3.7340                 7.1246                 8.5930
 IR Inten    --     19.0828                 2.4296               104.8976

 - Thermochemistry -
 -------------------
 Temperature   298.150 Kelvin.  Pressure   1.00000 Atm.
 Atom     1 has atomic number  6 and mass  12.00000

 Molecular mass:    70.02795 amu.
 Principal axes and moments of inertia in atomic units:
                           1         2         3
     Eigenvalues --   171.60376 174.58554 346.18931
           X            0.88285   0.46966   0.00000
           Y           -0.46966   0.88285   0.00000
           Z            0.00000   0.00000   1.00000
 This molecule is an asymmetric top.
 Rotational symmetry number  1.
 Rotational temperatures (Kelvin)      0.50473     0.49611     0.25019
 Rotational constants (GHZ):          10.51691    10.33729     5.21316
 Zero-point vibrational energy     122214.8 (Joules/Mol)
                                   29.21005 (Kcal/Mol)
 Warning -- explicit consideration of   1 degrees of freedom as
           vibrations may cause significant error
 Vibrational temperatures:    776.44   988.56  1041.79  1196.06  1368.04
          (Kelvin)           1450.01  1475.11  1525.20  1655.04  1801.56
                             1820.63  2093.73  2159.67  4768.85  5277.41

 Zero-point correction=                           0.046549 (Hartree/Particle)
 Thermal correction to Energy=                    0.050070
 Thermal correction to Enthalpy=                  0.051014
 Thermal correction to Gibbs Free Energy=         0.020433
 Sum of electronic and zero-point Energies=           -258.061281
 Sum of electronic and thermal Energies=              -258.057760
 Sum of electronic and thermal Enthalpies=            -258.056816
 Sum of electronic and thermal Free Energies=         -258.087397

                     E (Thermal)             CV                S
                      KCal/Mol        Cal/Mol-Kelvin    Cal/Mol-Kelvin
 Total                   31.419             11.573             64.364
 Electronic               0.000              0.000              0.000
 Translational            0.889              2.981             38.656
 Rotational               0.889              2.981             23.854
 Vibrational             29.642              5.611              1.854
 Vibration     1          0.895              1.162              0.566

 Normal termination of Gaussian 09 at Tue Nov 26 08:14:33 2013.
