 Gaussian 09, Revision D.01,
 Gaussian 09:  EM64L-G09RevD.01 24-Apr-2013

 -----------------------------------------
 #B2PLYP/cc-pVDZ opt=z-matrix freq density
 -----------------------------------------

 ------------------------------------------------------------------
 1H-tetrazole CH2N4 casno=288948 state=1 config=1 method=56 basis=5
 ------------------------------------------------------------------
 Symbolic Z-matrix:
 Charge =  0 Multiplicity = 1

 SCF Done:  E(RB2PLYP) =  -257.770398136     A.U. after   14 cycles
 E2(B2PLYP) =    -0.2583303646D+00 E(B2PLYP) =    -0.25802872850038D+03
 SCF Done:  E(RB2PLYP) =  -257.770408258     A.U. after   12 cycles
 E2(B2PLYP) =    -0.2638345816D+00 E(B2PLYP) =    -0.25803424283935D+03
 SCF Done:  E(RB2PLYP) =  -257.769856654     A.U. after   11 cycles
 E2(B2PLYP) =    -0.2645022924D+00 E(B2PLYP) =    -0.25803435894671D+03
 SCF Done:  E(RB2PLYP) =  -257.769589047     A.U. after   12 cycles
 E2(B2PLYP) =    -0.2643951866D+00 E(B2PLYP) =    -0.25803398423405D+03
 SCF Done:  E(RB2PLYP) =  -257.769751515     A.U. after   10 cycles
 E2(B2PLYP) =    -0.2646331017D+00 E(B2PLYP) =    -0.25803438461651D+03
 SCF Done:  E(RB2PLYP) =  -257.769830426     A.U. after   12 cycles
 E2(B2PLYP) =    -0.2643876919D+00 E(B2PLYP) =    -0.25803421811766D+03
 SCF Done:  E(RB2PLYP) =  -257.769777947     A.U. after    9 cycles
 E2(B2PLYP) =    -0.2646083221D+00 E(B2PLYP) =    -0.25803438626881D+03
 SCF Done:  E(RB2PLYP) =  -257.769774986     A.U. after   10 cycles
 E2(B2PLYP) =    -0.2646043963D+00 E(B2PLYP) =    -0.25803437938206D+03
 SCF Done:  E(RB2PLYP) =  -257.769798838     A.U. after    8 cycles
 E2(B2PLYP) =    -0.2645876623D+00 E(B2PLYP) =    -0.25803438650046D+03
 SCF Done:  E(RB2PLYP) =  -257.769804448     A.U. after    7 cycles
 E2(B2PLYP) =    -0.2645820503D+00 E(B2PLYP) =    -0.25803438649779D+03
 SCF Done:  E(RB2PLYP) =  -257.769800876     A.U. after    8 cycles
 E2(B2PLYP) =    -0.2645855832D+00 E(B2PLYP) =    -0.25803438645946D+03
 SCF Done:  E(RB2PLYP) =  -257.769802760     A.U. after    8 cycles
 E2(B2PLYP) =    -0.2645837505D+00 E(B2PLYP) =    -0.25803438651035D+03
 SCF Done:  E(RB2PLYP) =  -257.769805483     A.U. after    8 cycles
 E2(B2PLYP) =    -0.2645803945D+00 E(B2PLYP) =    -0.25803438587712D+03
 SCF Done:  E(RB2PLYP) =  -257.769798379     A.U. after    8 cycles
 E2(B2PLYP) =    -0.2645878261D+00 E(B2PLYP) =    -0.25803438620502D+03
 SCF Done:  E(RB2PLYP) =  -257.764420077     A.U. after   14 cycles
 E2(B2PLYP) =    -0.2626116899D+00 E(B2PLYP) =    -0.25802703176697D+03
 SCF Done:  E(RB2PLYP) =  -257.769808309     A.U. after    7 cycles
 E2(B2PLYP) =    -0.2645782597D+00 E(B2PLYP) =    -0.25803438656905D+03
 SCF Done:  E(RB2PLYP) =  -257.769829239     A.U. after    9 cycles
 E2(B2PLYP) =    -0.2645568385D+00 E(B2PLYP) =    -0.25803438607794D+03
 SCF Done:  E(RB2PLYP) =  -257.769802416     A.U. after    6 cycles
 E2(B2PLYP) =    -0.2645841639D+00 E(B2PLYP) =    -0.25803438657946D+03
 SCF Done:  E(RB2PLYP) =  -257.769801969     A.U. after    7 cycles
 E2(B2PLYP) =    -0.2645846064D+00 E(B2PLYP) =    -0.25803438657524D+03
 Optimization completed.
    -- Stationary point found.
 Normal termination of Gaussian 09 at Tue Nov 26 08:22:25 2013.

 ----------------------------------------------------------------------
 #N Geom=AllCheck Guess=TCheck SCRF=Check GenChk RB2PLYP(FC)/CC-pVDZ Fr
 eq
 ----------------------------------------------------------------------

 Structure from the checkpoint file:  "/tmp/rdj3/g09-23219/Gau-9371.chk"
 ------------------------------------------------------------------
 1H-tetrazole CH2N4 casno=288948 state=1 config=1 method=56 basis=5
 ------------------------------------------------------------------
 Charge =  0 Multiplicity = 1

                         Standard orientation:
 ---------------------------------------------------------------------
 Center     Atomic      Atomic             Coordinates (Angstroms)
 Number     Number       Type             X           Y           Z
 ---------------------------------------------------------------------
      1          6           0        1.070138    0.234515    0.000000
      2          7           0        0.000000    1.058155    0.000000
      3          7           0       -1.123398    0.306471    0.000000
      4          7           0       -0.725205   -0.928582    0.000000
      5          7           0        0.638884   -1.013434    0.000000
      6          1           0        2.104090    0.564529    0.000000
      7          1           0       -0.056887    2.070107    0.000000
 ---------------------------------------------------------------------

 SCF Done:  E(RB2PLYP) =  -257.769801969     A.U. after    1 cycles
 E2(B2PLYP) =    -0.2645846055D+00 E(B2PLYP) =    -0.25803438657436D+03
 E2(B2PLYP) =    -0.2645846055D+00 E(B2PLYP) =    -0.25803438657436D+03

 The electronic state is 1-A'.
 Alpha  occ. eigenvalues --  -14.96347 -14.93234 -14.91433 -14.88250 -10.72575
 Alpha  occ. eigenvalues --   -1.28612  -1.07485  -1.01763  -0.77307  -0.75690
 Alpha  occ. eigenvalues --   -0.67802  -0.57065  -0.56945  -0.45652  -0.38236
 Alpha  occ. eigenvalues --   -0.37601  -0.36524  -0.35435
 Alpha virt. eigenvalues --    0.04180   0.08175   0.08427   0.12523   0.25186
 Alpha virt. eigenvalues --    0.25977   0.32992   0.36446   0.46488   0.52777
 Alpha virt. eigenvalues --    0.53737   0.62341   0.65829   0.67505   0.74189

 Mulliken charges:
               1
     1  C    0.195621
     2  N   -0.051331
     3  N   -0.067105
     4  N   -0.087800
     5  N   -0.180757
     6  H    0.060293
     7  H    0.131078
 Sum of Mulliken charges =   0.00000

 Dipole moment (field-independent basis, Debye):
    X=              2.3935    Y=              4.6717    Z=              0.0000  Tot=              5.2491
 Quadrupole moment (field-independent basis, Debye-Ang):
   XX=            -28.8254   YY=            -26.1697   ZZ=            -28.1291
   XY=              1.7366   XZ=              0.0000   YZ=              0.0000

  Exact polarizability:  37.892   1.178  36.972   0.000   0.000  16.005
 Approx polarizability:  51.187   0.328  53.865   0.000   0.000  20.830

                      1                      2                      3
                     A"                     A"                     A"
 Frequencies --    575.1572               691.9497               738.8655
 Red. masses --      1.7604                 2.0481                 7.4635
 Frc consts  --      0.3431                 0.5778                 2.4006
 IR Inten    --     75.4552                 7.2097                 9.0818

                      4                      5                      6
                     A"                     A'                     A'
 Frequencies --    851.9781               964.2475              1007.8790
 Red. masses --      1.3547                 4.3021                 5.7479
 Frc consts  --      0.5794                 2.3567                 3.4401
 IR Inten    --     18.3972                 3.6256                 0.7118

                      7                      8                      9
                     A'                     A'                     A'
 Frequencies --   1053.9811              1063.9397              1141.7526
 Red. masses --      4.5041                 3.3124                 2.0244
 Frc consts  --      2.9480                 2.2091                 1.5549
 IR Inten    --     16.9369                28.1089                15.3321

                     10                     11                     12
                     A'                     A'                     A'
 Frequencies --   1256.4125              1271.4764              1461.8365
 Red. masses --      2.4611                11.5304                 3.1466
 Frc consts  --      2.2890                10.9827                 3.9618
 IR Inten    --      3.2211                11.2943                 9.9380

                     13                     14                     15
                     A'                     A'                     A'
 Frequencies --   1497.9478              3314.8446              3654.9243
 Red. masses --      3.5773                 1.1010                 1.0849
 Frc consts  --      4.7294                 7.1282                 8.5385
 IR Inten    --     14.1848                 1.9256                98.8469

 - Thermochemistry -
 -------------------
 Temperature   298.150 Kelvin.  Pressure   1.00000 Atm.
 Atom     1 has atomic number  6 and mass  12.00000

 Molecular mass:    70.02795 amu.
 Principal axes and moments of inertia in atomic units:
                           1         2         3
     Eigenvalues --   172.53963 175.83060 348.37023
           X            0.79654   0.60459   0.00000
           Y           -0.60459   0.79654   0.00000
           Z            0.00000   0.00000   1.00000
 This molecule is an asymmetric top.
 Rotational symmetry number  1.
 Rotational temperatures (Kelvin)      0.50199     0.49260     0.24863
 Rotational constants (GHZ):          10.45986    10.26409     5.18053
 Zero-point vibrational energy     122899.5 (Joules/Mol)
                                   29.37369 (Kcal/Mol)
 Warning -- explicit consideration of   1 degrees of freedom as
           vibrations may cause significant error
 Vibrational temperatures:    827.52   995.56  1063.06  1225.80  1387.34
          (Kelvin)           1450.11  1516.44  1530.77  1642.73  1807.70
                             1829.37  2103.25  2155.21  4769.32  5258.61

 Zero-point correction=                           0.046810 (Hartree/Particle)
 Thermal correction to Energy=                    0.050290
 Thermal correction to Enthalpy=                  0.051234
 Thermal correction to Gibbs Free Energy=         0.020702
 Sum of electronic and zero-point Energies=           -257.987577
 Sum of electronic and thermal Energies=              -257.984097
 Sum of electronic and thermal Enthalpies=            -257.983153
 Sum of electronic and thermal Free Energies=         -258.013684

                     E (Thermal)             CV                S
                      KCal/Mol        Cal/Mol-Kelvin    Cal/Mol-Kelvin
 Total                   31.557             11.378             64.259
 Electronic               0.000              0.000              0.000
 Translational            0.889              2.981             38.656
 Rotational               0.889              2.981             23.873
 Vibrational             29.780              5.417              1.730
 Vibration     1          0.932              1.085              0.494

 Normal termination of Gaussian 09 at Tue Nov 26 08:23:15 2013.
