 Gaussian 09, Revision D.01,
 Gaussian 09:  EM64L-G09RevD.01 24-Apr-2013

 -------------------------------
 #B2PLYP/STO-3G opt freq density
 -------------------------------

 -------------------------------------------------------------------
 1H-tetrazole CH2N4 casno=288948 state=1 config=1 method=56 basis=20
 -------------------------------------------------------------------
 Symbolic Z-matrix:
 Charge =  0 Multiplicity = 1

 SCF Done:  E(RB2PLYP) =  -254.382509342     A.U. after   14 cycles
 E2(B2PLYP) =    -0.1003009925D+00 E(B2PLYP) =    -0.25448281033402D+03
 SCF Done:  E(RB2PLYP) =  -254.419486468     A.U. after   14 cycles
 E2(B2PLYP) =    -0.1150195012D+00 E(B2PLYP) =    -0.25453450596902D+03
 SCF Done:  E(RB2PLYP) =  -254.416650129     A.U. after   14 cycles
 E2(B2PLYP) =    -0.1234583580D+00 E(B2PLYP) =    -0.25454010848750D+03
 SCF Done:  E(RB2PLYP) =  -254.416220450     A.U. after   13 cycles
 E2(B2PLYP) =    -0.1240242148D+00 E(B2PLYP) =    -0.25454024466490D+03
 SCF Done:  E(RB2PLYP) =  -254.416809766     A.U. after   11 cycles
 E2(B2PLYP) =    -0.1236498169D+00 E(B2PLYP) =    -0.25454045958336D+03
 SCF Done:  E(RB2PLYP) =  -254.416871303     A.U. after    9 cycles
 E2(B2PLYP) =    -0.1235909808D+00 E(B2PLYP) =    -0.25454046228328D+03
 Optimization completed.
    -- Stationary point found.
 Normal termination of Gaussian 09 at Mon Dec 16 15:47:28 2013.

 ----------------------------------------------------------------------
 #N Geom=AllCheck Guess=TCheck SCRF=Check GenChk RB2PLYP(FC)/STO-3G Fre
 q
 ----------------------------------------------------------------------

 Structure from the checkpoint file:  "/tmp/rdj3/g09-18029/Gau-8802.chk"
 -------------------------------------------------------------------
 1H-tetrazole CH2N4 casno=288948 state=1 config=1 method=56 basis=20
 -------------------------------------------------------------------
 Charge =  0 Multiplicity = 1

                         Standard orientation:
 ---------------------------------------------------------------------
 Center     Atomic      Atomic             Coordinates (Angstroms)
 Number     Number       Type             X           Y           Z
 ---------------------------------------------------------------------
      1          6           0        1.105346    0.257334    0.000000
      2          7           0        0.000000    1.104659    0.000000
      3          7           0       -1.200555    0.316983    0.000000
      4          7           0       -0.755899   -0.989623    0.000000
      5          7           0        0.708106   -1.049111    0.000000
      6          1           0        2.139497    0.624219    0.000000
      7          1           0       -0.033134    2.151429    0.000000
 ---------------------------------------------------------------------

 SCF Done:  E(RB2PLYP) =  -254.416871303     A.U. after    1 cycles
 E2(B2PLYP) =    -0.1235909803D+00 E(B2PLYP) =    -0.25454046228283D+03
 E2(B2PLYP) =    -0.1235909803D+00 E(B2PLYP) =    -0.25454046228283D+03

 The electronic state is 1-A'.
 Alpha  occ. eigenvalues --  -14.78586 -14.73350 -14.70359 -14.67639 -10.54800
 Alpha  occ. eigenvalues --   -1.18019  -0.99250  -0.94805  -0.70289  -0.68196
 Alpha  occ. eigenvalues --   -0.60807  -0.49077  -0.47723  -0.36872  -0.30144
 Alpha  occ. eigenvalues --   -0.29520  -0.28747  -0.28183
 Alpha virt. eigenvalues --    0.10601   0.15825   0.30815   0.33728   0.44060
 Alpha virt. eigenvalues --    0.45041   0.46906   0.62518   0.68285

 Mulliken charges:
               1
     1  C    0.076786
     2  N   -0.196026
     3  N   -0.039544
     4  N   -0.062710
     5  N   -0.151078
     6  H    0.119610
     7  H    0.252962
 Sum of Mulliken charges =   0.00000

 Dipole moment (field-independent basis, Debye):
    X=              2.0761    Y=              4.3609    Z=              0.0000  Tot=              4.8298
 Quadrupole moment (field-independent basis, Debye-Ang):
   XX=            -27.5060   YY=            -24.8083   ZZ=            -25.9079
   XY=              1.7752   XZ=              0.0000   YZ=              0.0000

  Exact polarizability:  24.769   1.326  25.858   0.000   0.000   6.254
 Approx polarizability:  41.559  -0.709  48.915   0.000   0.000   5.828

                      1                      2                      3
                     A"                     A"                     A"
 Frequencies --    444.2303               639.2435               649.8076
 Red. masses --      1.8576                 2.1473                 7.8113
 Frc consts  --      0.2160                 0.5170                 1.9433
 IR Inten    --     83.2723                13.6637                 7.8750

                      4                      5                      6
                     A"                     A'                     A'
 Frequencies --    839.3767               896.0460               955.1477
 Red. masses --      1.2454                 6.8890                 5.5261
 Frc consts  --      0.5170                 3.2589                 2.9703
 IR Inten    --     10.2122                 3.1502                 0.1202

                      7                      8                      9
                     A'                     A'                     A'
 Frequencies --   1007.0762              1026.6182              1130.1326
 Red. masses --      8.0613                 2.8229                 1.9520
 Frc consts  --      4.8170                 1.7529                 1.4689
 IR Inten    --     15.3811                13.6285                 6.7987

                     10                     11                     12
                     A'                     A'                     A'
 Frequencies --   1175.2954              1241.4888              1463.9384
 Red. masses --      4.1344                 2.9642                 3.5641
 Frc consts  --      3.3648                 2.6918                 4.5003
 IR Inten    --      1.2247                 1.7613                13.3739

                     13                     14                     15
                     A'                     A'                     A'
 Frequencies --   1494.4234              3537.2052              3773.0019
 Red. masses --      2.9202                 1.1004                 1.0865
 Frc consts  --      3.8424                 8.1118                 9.1130
 IR Inten    --     33.2479                31.5892                83.5144

 - Thermochemistry -
 -------------------
 Temperature   298.150 Kelvin.  Pressure   1.00000 Atm.
 Atom     1 has atomic number  6 and mass  12.00000

 Molecular mass:    70.02795 amu.
 Principal axes and moments of inertia in atomic units:
                           1         2         3
     Eigenvalues --   189.45799 195.44313 384.90113
           X            0.90250   0.43068   0.00000
           Y           -0.43068   0.90250   0.00000
           Z            0.00000   0.00000   1.00000
 This molecule is an asymmetric top.
 Rotational symmetry number  1.
 Rotational temperatures (Kelvin)      0.45717     0.44317     0.22503
 Rotational constants (GHZ):           9.52581     9.23410     4.68884
 Zero-point vibrational energy     121259.7 (Joules/Mol)
                                   28.98175 (Kcal/Mol)
 Warning -- explicit consideration of   1 degrees of freedom as
           vibrations may cause significant error
 Vibrational temperatures:    639.15   919.73   934.93  1207.67  1289.21
          (Kelvin)           1374.24  1448.96  1477.07  1626.01  1690.99
                             1786.22  2106.28  2150.14  5089.24  5428.50

 Zero-point correction=                           0.046185 (Hartree/Particle)
 Thermal correction to Energy=                    0.049862
 Thermal correction to Enthalpy=                  0.050806
 Thermal correction to Gibbs Free Energy=         0.019844
 Sum of electronic and zero-point Energies=           -254.494277
 Sum of electronic and thermal Energies=              -254.490600
 Sum of electronic and thermal Enthalpies=            -254.489656
 Sum of electronic and thermal Free Energies=         -254.520619

                     E (Thermal)             CV                S
                      KCal/Mol        Cal/Mol-Kelvin    Cal/Mol-Kelvin
 Total                   31.289             12.272             65.166
 Electronic               0.000              0.000              0.000
 Translational            0.889              2.981             38.656
 Rotational               0.889              2.981             24.170
 Vibrational             29.511              6.310              2.340
 Vibration     1          0.804              1.374              0.813

 Optimization completed.
    -- Stationary point found.
 Normal termination of Gaussian 09 at Mon Dec 16 15:47:34 2013.
