 Gaussian 09, Revision D.01,
 Gaussian 09:  EM64L-G09RevD.01 24-Apr-2013

 -------------------------------------
 #B2PLYP/6-31G(2df,p) opt freq density
 -------------------------------------

 -------------------------------------------------------------------
 1H-tetrazole CH2N4 casno=288948 state=1 config=1 method=56 basis=19
 -------------------------------------------------------------------
 Symbolic Z-matrix:
 Charge =  0 Multiplicity = 1

 SCF Done:  E(RB2PLYP) =  -257.767881974     A.U. after   14 cycles
 E2(B2PLYP) =    -0.2983820917D+00 E(B2PLYP) =    -0.25806626406599D+03
 SCF Done:  E(RB2PLYP) =  -257.767577934     A.U. after   12 cycles
 E2(B2PLYP) =    -0.3027781361D+00 E(B2PLYP) =    -0.25807035607018D+03
 SCF Done:  E(RB2PLYP) =  -257.767004309     A.U. after   10 cycles
 E2(B2PLYP) =    -0.3034692983D+00 E(B2PLYP) =    -0.25807047360715D+03
 SCF Done:  E(RB2PLYP) =  -257.766868244     A.U. after   10 cycles
 E2(B2PLYP) =    -0.3036191118D+00 E(B2PLYP) =    -0.25807048735532D+03
 SCF Done:  E(RB2PLYP) =  -257.766952812     A.U. after    9 cycles
 E2(B2PLYP) =    -0.3035420795D+00 E(B2PLYP) =    -0.25807049489163D+03
 SCF Done:  E(RB2PLYP) =  -257.766995028     A.U. after    8 cycles
 E2(B2PLYP) =    -0.3035012372D+00 E(B2PLYP) =    -0.25807049626484D+03
 Optimization completed.
    -- Stationary point found.

 1\1\GINC-N963\FOpt\RB2PLYP-FC\6-31G(2df,p)\C1H2N4\RDJ3\16-Dec-2013\0\\
 #B2PLYP/6-31G(2df,p) opt freq density\\1H-tetrazole CH2N4 casno=288948
  state=1 config=1 method=56 basis=19\\0,1\C,1.0101765071,0.003186116,0
 .\N,0.3920533585,-1.1895168476,0.\N,-0.9420045265,-0.9859197392,0.\N,-
 1.1035402253,0.29943163,0.\N,0.096004101,0.9493174904,0.\H,2.077333210
 2,0.1388317641,0.\H,0.7618753149,-2.1255794769,0.\\Version=EM64L-G09Re
 vD.01\State=1-A'\HF=-257.766995\MP2=-258.0704963\RMSD=8.353e-09\RMSF=1
 .373e-04\Dipole=0.9614558,1.8358969,0.\Quadrupole=-0.7703446,1.2039267

 Normal termination of Gaussian 09 at Mon Dec 16 15:40:37 2013.

 ----------------------------------------------------------------------
 #N Geom=AllCheck Guess=TCheck SCRF=Check GenChk RB2PLYP(FC)/6-31G(2df,
 p) Freq
 ----------------------------------------------------------------------

 Structure from the checkpoint file:  "/tmp/rdj3/g09-18029/Gau-7956.chk"
 -------------------------------------------------------------------
 1H-tetrazole CH2N4 casno=288948 state=1 config=1 method=56 basis=19
 -------------------------------------------------------------------
 Charge =  0 Multiplicity = 1

                         Standard orientation:
 ---------------------------------------------------------------------
 Center     Atomic      Atomic             Coordinates (Angstroms)
 Number     Number       Type             X           Y           Z
 ---------------------------------------------------------------------
      1          6           0        1.066025    0.236982    0.000000
      2          7           0        0.000000    1.054421    0.000000
      3          7           0       -1.121414    0.303693    0.000000
      4          7           0       -0.721955   -0.928644    0.000000
      5          7           0        0.640028   -1.007767    0.000000
      6          1           0        2.089817    0.567244    0.000000
      7          1           0       -0.062582    2.058944    0.000000
 ---------------------------------------------------------------------

 SCF Done:  E(RB2PLYP) =  -257.766995028     A.U. after    1 cycles
 E2(B2PLYP) =    -0.3035012392D+00 E(B2PLYP) =    -0.25807049626690D+03
 E2(B2PLYP) =    -0.3035012392D+00 E(B2PLYP) =    -0.25807049626690D+03

 The electronic state is 1-A'.
 Alpha  occ. eigenvalues --  -14.96188 -14.93316 -14.91652 -14.88200 -10.72079
 Alpha  occ. eigenvalues --   -1.28403  -1.07298  -1.01541  -0.77274  -0.75595
 Alpha  occ. eigenvalues --   -0.67895  -0.57053  -0.57006  -0.45667  -0.38179
 Alpha  occ. eigenvalues --   -0.37552  -0.36492  -0.35330
 Alpha virt. eigenvalues --    0.04481   0.08642   0.11407   0.16815   0.25614
 Alpha virt. eigenvalues --    0.26583   0.33513   0.35417   0.46374   0.51533
 Alpha virt. eigenvalues --    0.54115   0.55425   0.59346   0.62535   0.64125

 Mulliken charges:
               1
     1  C    0.061611
     2  N   -0.202929
     3  N   -0.069469
     4  N   -0.085335
     5  N   -0.197936
     6  H    0.182884
     7  H    0.311174
 Sum of Mulliken charges =   0.00000

 Dipole moment (field-independent basis, Debye):
    X=              2.4438    Y=              4.6664    Z=              0.0000  Tot=              5.2676
 Quadrupole moment (field-independent basis, Debye-Ang):
   XX=            -28.5727   YY=            -25.9172   ZZ=            -28.1197
   XY=              1.7700   XZ=              0.0000   YZ=              0.0000

  Exact polarizability:  38.851   0.999  38.058   0.000   0.000  18.285
 Approx polarizability:  52.550   0.214  55.161   0.000   0.000  25.015

                      1                      2                      3
                     A"                     A"                     A"
 Frequencies --    587.5048               694.8845               741.3938
 Red. masses --      1.7343                 2.0490                 7.9775
 Frc consts  --      0.3527                 0.5829                 2.5835
 IR Inten    --     77.3358                 7.5115                 8.6861

                      4                      5                      6
                     A"                     A'                     A'
 Frequencies --    866.9562               968.8178              1012.1187
 Red. masses --      1.3523                 4.8630                 6.1432
 Frc consts  --      0.5989                 2.6893                 3.7077
 IR Inten    --     14.1406                 4.0599                 0.8706

                      7                      8                      9
                     A'                     A'                     A'
 Frequencies --   1058.9054              1071.0297              1154.4601
 Red. masses --      5.6686                 3.4228                 1.8899
 Frc consts  --      3.7449                 2.3133                 1.4841
 IR Inten    --     12.6617                30.8822                14.6178

                     10                     11                     12
                     A'                     A'                     A'
 Frequencies --   1262.1859              1270.9575              1461.8077
 Red. masses --      3.0113                 5.7552                 3.0732
 Frc consts  --      2.8265                 5.4773                 3.8693
 IR Inten    --      9.7981                 3.9467                10.3035

                     13                     14                     15
                     A'                     A'                     A'
 Frequencies --   1500.6506              3319.6527              3688.3735
 Red. masses --      3.1625                 1.1002                 1.0837
 Frc consts  --      4.1960                 7.1437                 8.6865
 IR Inten    --     17.3533                 1.7180                98.5609

 - Thermochemistry -
 -------------------
 Temperature   298.150 Kelvin.  Pressure   1.00000 Atm.
 Atom     1 has atomic number  6 and mass  12.00000

 Molecular mass:    70.02795 amu.
 Principal axes and moments of inertia in atomic units:
                           1         2         3
     Eigenvalues --   171.63025 174.62092 346.25118
           X            0.82333   0.56757   0.00000
           Y           -0.56757   0.82333   0.00000
           Z            0.00000   0.00000   1.00000
 This molecule is an asymmetric top.
 Rotational symmetry number  1.
 Rotational temperatures (Kelvin)      0.50465     0.49601     0.25015
 Rotational constants (GHZ):          10.51529    10.33519     5.21223
 Zero-point vibrational energy     123572.4 (Joules/Mol)
                                   29.53452 (Kcal/Mol)
 Warning -- explicit consideration of   1 degrees of freedom as
           vibrations may cause significant error
 Vibrational temperatures:    845.29   999.78  1066.70  1247.36  1393.91
          (Kelvin)           1456.21  1523.53  1540.97  1661.01  1816.00
                             1828.62  2103.21  2159.10  4776.23  5306.74

 Zero-point correction=                           0.047066 (Hartree/Particle)
 Thermal correction to Energy=                    0.050529
 Thermal correction to Enthalpy=                  0.051473
 Thermal correction to Gibbs Free Energy=         0.020974
 Sum of electronic and zero-point Energies=           -258.023430
 Sum of electronic and thermal Energies=              -258.019967
 Sum of electronic and thermal Enthalpies=            -258.019023
 Sum of electronic and thermal Free Energies=         -258.049523

                     E (Thermal)             CV                S
                      KCal/Mol        Cal/Mol-Kelvin    Cal/Mol-Kelvin
 Total                   31.707             11.285             64.192
 Electronic               0.000              0.000              0.000
 Translational            0.889              2.981             38.656
 Rotational               0.889              2.981             23.855
 Vibrational             29.930              5.323              1.681
 Vibration     1          0.945              1.058              0.472

 Optimization completed.
    -- Stationary point found.

 1\1\GINC-N963\Freq\RB2PLYP-FC\6-31G(2df,p)\C1H2N4\RDJ3\16-Dec-2013\0\\
 #N Geom=AllCheck Guess=TCheck SCRF=Check GenChk RB2PLYP(FC)/6-31G(2df,
 p) Freq\\1H-tetrazole CH2N4 casno=288948 state=1 config=1 method=56 ba
 sis=19\\0,1\C,1.0102563711,0.0031672173,0.\N,0.3921332225,-1.189535746
 2,0.\N,-0.9419246625,-0.9859386379,0.\N,-1.1034603613,0.2994127313,0.\
 N,0.0960839649,0.9492985917,0.\H,2.0774130742,0.1388128654,0.\H,0.7619
 551789,-2.1255983756,0.\\Version=EM64L-G09RevD.01\State=1-A'\HF=-257.7
 66995\MP2=-258.0704963\RMSD=4.326e-09\RMSF=1.373e-04\ZeroPoint=0.04706

 Normal termination of Gaussian 09 at Mon Dec 16 15:47:13 2013.
