 Gaussian 09, Revision D.01,
 Gaussian 09:  EM64L-G09RevD.01 24-Apr-2013

 ----------------------------------------
 #HSEh1PBE/6-31G(2df,p) opt=z-matrix freq
 ----------------------------------------

 -------------------------------------------------------------------
 1H-tetrazole CH2N4 casno=288948 state=1 config=1 method=57 basis=19
 -------------------------------------------------------------------
 Symbolic Z-matrix:
 Charge =  0 Multiplicity = 1

 SCF Done:  E(RHSEH1PBE) =  -258.008582220     A.U. after   15 cycles
 SCF Done:  E(RHSEH1PBE) =  -258.010625900     A.U. after   12 cycles
 SCF Done:  E(RHSEH1PBE) =  -258.010662243     A.U. after   11 cycles
 SCF Done:  E(RHSEH1PBE) =  -258.010680250     A.U. after   11 cycles
 SCF Done:  E(RHSEH1PBE) =  -258.010688075     A.U. after    9 cycles
 SCF Done:  E(RHSEH1PBE) =  -258.010049586     A.U. after   12 cycles
 SCF Done:  E(RHSEH1PBE) =  -258.010695216     A.U. after    9 cycles
 SCF Done:  E(RHSEH1PBE) =  -258.010689164     A.U. after    9 cycles
 SCF Done:  E(RHSEH1PBE) =  -258.010696691     A.U. after    8 cycles
 SCF Done:  E(RHSEH1PBE) =  -258.010697737     A.U. after    8 cycles
 SCF Done:  E(RHSEH1PBE) =  -258.010697705     A.U. after    8 cycles
 SCF Done:  E(RHSEH1PBE) =  -258.010697713     A.U. after    8 cycles
 SCF Done:  E(RHSEH1PBE) =  -258.010697879     A.U. after    9 cycles
 SCF Done:  E(RHSEH1PBE) =  -258.010697511     A.U. after    9 cycles
 SCF Done:  E(RHSEH1PBE) =  -258.010698355     A.U. after    5 cycles
 SCF Done:  E(RHSEH1PBE) =  -258.010697873     A.U. after    8 cycles
 SCF Done:  E(RHSEH1PBE) =  -258.010698323     A.U. after    8 cycles
 Optimization completed.
    -- Stationary point found.
 Normal termination of Gaussian 09 at Tue Nov 26 10:19:44 2013.

 ----------------------------------------------------------------------
 #N Geom=AllCheck Guess=TCheck SCRF=Check GenChk RHSEH1PBE/6-31G(2df,p)
  Freq
 ----------------------------------------------------------------------

 Structure from the checkpoint file:  "/tmp/rdj3/g09-23219/Gau-22913.chk"
 -------------------------------------------------------------------
 1H-tetrazole CH2N4 casno=288948 state=1 config=1 method=57 basis=19
 -------------------------------------------------------------------
 Charge =  0 Multiplicity = 1

                         Standard orientation:
 ---------------------------------------------------------------------
 Center     Atomic      Atomic             Coordinates (Angstroms)
 Number     Number       Type             X           Y           Z
 ---------------------------------------------------------------------
      1          6           0        1.061624    0.232711    0.000000
      2          7           0        0.000000    1.047671    0.000000
      3          7           0       -1.110658    0.303028    0.000000
      4          7           0       -0.718441   -0.919024    0.000000
      5          7           0        0.629372   -1.004172    0.000000
      6          1           0        2.088991    0.559300    0.000000
      7          1           0       -0.060650    2.051915    0.000000
 ---------------------------------------------------------------------

 SCF Done:  E(RHSEH1PBE) =  -258.010698323     A.U. after    1 cycles

 The electronic state is 1-A'.
 Alpha  occ. eigenvalues --  -14.49285 -14.45503 -14.43827 -14.40967 -10.30661
 Alpha  occ. eigenvalues --   -1.16346  -0.96051  -0.90361  -0.68528  -0.67063
 Alpha  occ. eigenvalues --   -0.59902  -0.50260  -0.49812  -0.37945  -0.33082
 Alpha  occ. eigenvalues --   -0.30593  -0.30149  -0.28652
 Alpha virt. eigenvalues --   -0.02426   0.01275   0.05724   0.10842   0.18305
 Alpha virt. eigenvalues --    0.19631   0.26627   0.28758   0.38428   0.43081
 Alpha virt. eigenvalues --    0.46174   0.47782   0.51018   0.54501   0.56145

 Mulliken charges:
               1
     1  C    0.088780
     2  N   -0.218146
     3  N   -0.073511
     4  N   -0.085837
     5  N   -0.221918
     6  H    0.193388
     7  H    0.317245
 Sum of Mulliken charges =   0.00000

 Dipole moment (field-independent basis, Debye):
    X=              2.4421    Y=              4.6530    Z=              0.0000  Tot=              5.2549
 Quadrupole moment (field-independent basis, Debye-Ang):
   XX=            -28.2951   YY=            -25.6669   ZZ=            -27.9596
   XY=              1.7473   XZ=              0.0000   YZ=              0.0000

  Exact polarizability:  38.639   0.928  37.854   0.000   0.000  18.421
 Approx polarizability:  68.877   0.415  72.268   0.000   0.000  29.825

                      1                      2                      3
                     A"                     A"                     A"
 Frequencies --    607.3955               703.5143               756.8694
 Red. masses --      1.7042                 2.0179                 8.3314
 Frc consts  --      0.3704                 0.5884                 2.8120
 IR Inten    --     78.7185                 7.1409                 8.0595

                      4                      5                      6
                     A"                     A'                     A'
 Frequencies --    873.7521               995.2140              1029.3352
 Red. masses --      1.3784                 4.1296                 5.2446
 Frc consts  --      0.6200                 2.4099                 3.2740
 IR Inten    --     13.5918                 3.2646                 2.2094

                      7                      8                      9
                     A'                     A'                     A'
 Frequencies --   1098.0850              1109.1918              1165.5680
 Red. masses --      2.9674                 4.7389                 2.0601
 Frc consts  --      2.1082                 3.4351                 1.6490
 IR Inten    --     28.5013                20.2048                11.0047

                     10                     11                     12
                     A'                     A'                     A'
 Frequencies --   1289.7835              1338.8849              1485.7985
 Red. masses --      2.5894                10.4255                 3.4042
 Frc consts  --      2.5379                11.0112                 4.4277
 IR Inten    --      1.5337                14.6436                 8.3593

                     13                     14                     15
                     A'                     A'                     A'
 Frequencies --   1532.1979              3309.5424              3701.0636
 Red. masses --      3.6855                 1.1012                 1.0836
 Frc consts  --      5.0978                 7.1067                 8.7452
 IR Inten    --     16.3175                 1.3733                95.8134

 - Thermochemistry -
 -------------------
 Temperature   298.150 Kelvin.  Pressure   1.00000 Atm.
 Atom     1 has atomic number  6 and mass  12.00000

 Molecular mass:    70.02795 amu.
 Principal axes and moments of inertia in atomic units:
                           1         2         3
     Eigenvalues --   169.36758 172.14029 341.50787
           X            0.79333   0.60879   0.00000
           Y           -0.60879   0.79333   0.00000
           Z            0.00000   0.00000   1.00000
 This molecule is an asymmetric top.
 Rotational symmetry number  1.
 Rotational temperatures (Kelvin)      0.51140     0.50316     0.25362
 Rotational constants (GHZ):          10.65577    10.48413     5.28463
 Zero-point vibrational energy     125585.1 (Joules/Mol)
                                   30.01557 (Kcal/Mol)
 Warning -- explicit consideration of   1 degrees of freedom as
           vibrations may cause significant error
 Vibrational temperatures:    873.91  1012.20  1088.96  1257.13  1431.89
          (Kelvin)           1480.98  1579.90  1595.88  1676.99  1855.71
                             1926.35  2137.73  2204.49  4761.69  5325.00

 Zero-point correction=                           0.047833 (Hartree/Particle)
 Thermal correction to Energy=                    0.051254
 Thermal correction to Enthalpy=                  0.052198
 Thermal correction to Gibbs Free Energy=         0.021774
 Sum of electronic and zero-point Energies=           -257.962865
 Sum of electronic and thermal Energies=              -257.959445
 Sum of electronic and thermal Enthalpies=            -257.958501
 Sum of electronic and thermal Free Energies=         -257.988925

                     E (Thermal)             CV                S
                      KCal/Mol        Cal/Mol-Kelvin    Cal/Mol-Kelvin
 Total                   32.162             11.001             64.033
 Electronic               0.000              0.000              0.000
 Translational            0.889              2.981             38.656
 Rotational               0.889              2.981             23.814
 Vibrational             30.385              5.040              1.563
 Vibration     1          0.966              1.016              0.437

 Normal termination of Gaussian 09 at Tue Nov 26 10:20:50 2013.
