 Gaussian 09, Revision D.01,
 Gaussian 09:  EM64L-G09RevD.01 24-Apr-2013

 -------------------------
 #HSEh1PBE/STO-3G opt freq
 -------------------------

 -------------------------------------------------------------------
 1H-tetrazole CH2N4 casno=288948 state=1 config=1 method=57 basis=20
 -------------------------------------------------------------------
 Symbolic Z-matrix:
 Charge =  0 Multiplicity = 1

 SCF Done:  E(RHSEH1PBE) =  -254.633472604     A.U. after   14 cycles
 SCF Done:  E(RHSEH1PBE) =  -254.677802644     A.U. after   15 cycles
 SCF Done:  E(RHSEH1PBE) =  -254.680204669     A.U. after   14 cycles
 SCF Done:  E(RHSEH1PBE) =  -254.680267776     A.U. after   14 cycles
 SCF Done:  E(RHSEH1PBE) =  -254.680397421     A.U. after   10 cycles
 SCF Done:  E(RHSEH1PBE) =  -254.680398091     A.U. after    8 cycles
 Optimization completed.
    -- Stationary point found.
 Normal termination of Gaussian 09 at Mon Dec 16 15:49:37 2013.

 ---------------------------------------------------------------------
 #N Geom=AllCheck Guess=TCheck SCRF=Check GenChk RHSEH1PBE/STO-3G Freq
 ---------------------------------------------------------------------

 Structure from the checkpoint file:  "/tmp/rdj3/g09-18029/Gau-10476.chk"
 -------------------------------------------------------------------
 1H-tetrazole CH2N4 casno=288948 state=1 config=1 method=57 basis=20
 -------------------------------------------------------------------
 Charge =  0 Multiplicity = 1

                         Standard orientation:
 ---------------------------------------------------------------------
 Center     Atomic      Atomic             Coordinates (Angstroms)
 Number     Number       Type             X           Y           Z
 ---------------------------------------------------------------------
      1          6           0        1.098883    0.253792    0.000000
      2          7           0        0.000000    1.094288    0.000000
      3          7           0       -1.187258    0.314068    0.000000
      4          7           0       -0.748572   -0.977417    0.000000
      5          7           0        0.694258   -1.041984    0.000000
      6          1           0        2.133498    0.615200    0.000000
      7          1           0       -0.035792    2.139366    0.000000
 ---------------------------------------------------------------------

 SCF Done:  E(RHSEH1PBE) =  -254.680398091     A.U. after    1 cycles

 The electronic state is 1-A'.
 Alpha  occ. eigenvalues --  -14.33056 -14.26141 -14.23256 -14.20975 -10.13767
 Alpha  occ. eigenvalues --   -1.07277  -0.89143  -0.84595  -0.62389  -0.60430
 Alpha  occ. eigenvalues --   -0.53751  -0.43276  -0.41195  -0.29267  -0.24602
 Alpha  occ. eigenvalues --   -0.23455  -0.22699  -0.21106
 Alpha virt. eigenvalues --    0.03755   0.08266   0.21924   0.24546   0.34359
 Alpha virt. eigenvalues --    0.35691   0.37695   0.51993   0.57856

 Mulliken charges:
               1
     1  C    0.064081
     2  N   -0.196530
     3  N   -0.045032
     4  N   -0.065729
     5  N   -0.152554
     6  H    0.131551
     7  H    0.264213
 Sum of Mulliken charges =   0.00000

 Dipole moment (field-independent basis, Debye):
    X=              2.1427    Y=              4.4420    Z=              0.0000  Tot=              4.9318
 Quadrupole moment (field-independent basis, Debye-Ang):
   XX=            -27.4172   YY=            -24.6761   ZZ=            -25.9124
   XY=              1.7662   XZ=              0.0000   YZ=              0.0000

  Exact polarizability:  24.420   1.189  25.265   0.000   0.000   6.163
 Approx polarizability:  56.030  -1.049  64.990   0.000   0.000   8.126

                      1                      2                      3
                     A"                     A"                     A"
 Frequencies --    491.2115               650.5539               667.4041
 Red. masses --      1.8968                 2.0512                 7.8978
 Frc consts  --      0.2697                 0.5115                 2.0727
 IR Inten    --     83.5419                15.2436                 8.2698

                      4                      5                      6
                     A"                     A'                     A'
 Frequencies --    849.1096               932.9877               975.1949
 Red. masses --      1.2626                 5.5795                 5.8731
 Frc consts  --      0.5363                 2.8615                 3.2908
 IR Inten    --     11.2437                 0.9692                 0.2255

                      7                      8                      9
                     A'                     A'                     A'
 Frequencies --   1047.5006              1058.2276              1146.7747
 Red. masses --      4.0327                 3.6381                 1.5116
 Frc consts  --      2.6071                 2.4004                 1.1712
 IR Inten    --     17.4851                17.6466                 7.6179

                     10                     11                     12
                     A'                     A'                     A'
 Frequencies --   1253.1621              1269.8362              1488.6144
 Red. masses --      9.7287                 2.9948                 3.7584
 Frc consts  --      9.0016                 2.8452                 4.9071
 IR Inten    --      0.0982                 1.6767                14.2765

                     13                     14                     15
                     A'                     A'                     A'
 Frequencies --   1527.4395              3544.7388              3780.6750
 Red. masses --      3.5381                 1.1016                 1.0867
 Frc consts  --      4.8635                 8.1555                 9.1518
 IR Inten    --     31.6396                38.8305                91.9574

 - Thermochemistry -
 -------------------
 Temperature   298.150 Kelvin.  Pressure   1.00000 Atm.
 Atom     1 has atomic number  6 and mass  12.00000

 Molecular mass:    70.02795 amu.
 Principal axes and moments of inertia in atomic units:
                           1         2         3
     Eigenvalues --   186.07668 191.53790 377.61458
           X            0.90228   0.43115   0.00000
           Y           -0.43115   0.90228   0.00000
           Z            0.00000   0.00000   1.00000
 This molecule is an asymmetric top.
 Rotational symmetry number  1.
 Rotational temperatures (Kelvin)      0.46547     0.45220     0.22937
 Rotational constants (GHZ):           9.69891     9.42237     4.77932
 Zero-point vibrational energy     123714.4 (Joules/Mol)
                                   29.56845 (Kcal/Mol)
 Warning -- explicit consideration of   1 degrees of freedom as
           vibrations may cause significant error
 Vibrational temperatures:    706.74   936.00   960.24  1221.68  1342.36
          (Kelvin)           1403.09  1507.12  1522.55  1649.95  1803.02
                             1827.01  2141.78  2197.64  5100.08  5439.54

 Zero-point correction=                           0.047120 (Hartree/Particle)
 Thermal correction to Energy=                    0.050714
 Thermal correction to Enthalpy=                  0.051658
 Thermal correction to Gibbs Free Energy=         0.020845
 Sum of electronic and zero-point Energies=           -254.633278
 Sum of electronic and thermal Energies=              -254.629684
 Sum of electronic and thermal Enthalpies=            -254.628740
 Sum of electronic and thermal Free Energies=         -254.659554

                     E (Thermal)             CV                S
                      KCal/Mol        Cal/Mol-Kelvin    Cal/Mol-Kelvin
 Total                   31.824             11.856             64.853
 Electronic               0.000              0.000              0.000
 Translational            0.889              2.981             38.656
 Rotational               0.889              2.981             24.113
 Vibrational             30.046              5.894              2.084
 Vibration     1          0.847              1.270              0.680

 Optimization completed.
    -- Stationary point found.
 Normal termination of Gaussian 09 at Mon Dec 16 15:49:41 2013.
