 Gaussian 09, Revision D.01,
 Gaussian 09:  EM64L-G09RevD.01 24-Apr-2013

 -----------------------------------
 #HSEh1PBE/6-311G* opt=z-matrix freq
 -----------------------------------

 ------------------------------------------------------------------
 1H-tetrazole CH2N4 casno=288948 state=1 config=1 method=57 basis=7
 ------------------------------------------------------------------
 Symbolic Z-matrix:
 Charge =  0 Multiplicity = 1

 SCF Done:  E(RHSEH1PBE) =  -258.046788899     A.U. after   15 cycles
 SCF Done:  E(RHSEH1PBE) =  -258.048650692     A.U. after   13 cycles
 SCF Done:  E(RHSEH1PBE) =  -258.048690493     A.U. after   11 cycles
 SCF Done:  E(RHSEH1PBE) =  -258.048347967     A.U. after   12 cycles
 SCF Done:  E(RHSEH1PBE) =  -258.048696329     A.U. after   10 cycles
 SCF Done:  E(RHSEH1PBE) =  -258.048700988     A.U. after   10 cycles
 SCF Done:  E(RHSEH1PBE) =  -258.048619815     A.U. after   11 cycles
 SCF Done:  E(RHSEH1PBE) =  -258.048701399     A.U. after    8 cycles
 SCF Done:  E(RHSEH1PBE) =  -258.048694552     A.U. after    9 cycles
 SCF Done:  E(RHSEH1PBE) =  -258.039026049     A.U. after   14 cycles
 SCF Done:  E(RHSEH1PBE) =  -258.048702519     A.U. after    8 cycles
 SCF Done:  E(RHSEH1PBE) =  -258.048473329     A.U. after   11 cycles
 SCF Done:  E(RHSEH1PBE) =  -258.048702518     A.U. after    8 cycles
 SCF Done:  E(RHSEH1PBE) =  -258.048703249     A.U. after    7 cycles
 SCF Done:  E(RHSEH1PBE) =  -258.048702276     A.U. after    8 cycles
 SCF Done:  E(RHSEH1PBE) =  -258.048703353     A.U. after    2 cycles
 SCF Done:  E(RHSEH1PBE) =  -258.048703437     A.U. after    7 cycles
 Optimization completed.
    -- Stationary point found.
 Normal termination of Gaussian 09 at Tue Nov 26 10:41:15 2013.

 ----------------------------------------------------------------------
 #N Geom=AllCheck Guess=TCheck SCRF=Check GenChk RHSEH1PBE/6-311G(d) Fr
 eq
 ----------------------------------------------------------------------

 Structure from the checkpoint file:  "/tmp/rdj3/g09-23219/Gau-5518.chk"
 ------------------------------------------------------------------
 1H-tetrazole CH2N4 casno=288948 state=1 config=1 method=57 basis=7
 ------------------------------------------------------------------
 Charge =  0 Multiplicity = 1

                         Standard orientation:
 ---------------------------------------------------------------------
 Center     Atomic      Atomic             Coordinates (Angstroms)
 Number     Number       Type             X           Y           Z
 ---------------------------------------------------------------------
      1          6           0        1.062443    0.230981    0.000000
      2          7           0        0.000000    1.048002    0.000000
      3          7           0       -1.110767    0.302106    0.000000
      4          7           0       -0.719345   -0.917456    0.000000
      5          7           0        0.629419   -1.002948    0.000000
      6          1           0        2.090996    0.554087    0.000000
      7          1           0       -0.060799    2.052095    0.000000
 ---------------------------------------------------------------------

 SCF Done:  E(RHSEH1PBE) =  -258.048703437     A.U. after    1 cycles

 The electronic state is 1-A'.
 Alpha  occ. eigenvalues --  -14.48149 -14.44295 -14.42467 -14.39651 -10.29953
 Alpha  occ. eigenvalues --   -1.17434  -0.96886  -0.91346  -0.69379  -0.67881
 Alpha  occ. eigenvalues --   -0.60814  -0.50897  -0.50669  -0.38584  -0.33717
 Alpha  occ. eigenvalues --   -0.31367  -0.30741  -0.29187
 Alpha virt. eigenvalues --   -0.03111   0.00636   0.01583   0.06034   0.16606
 Alpha virt. eigenvalues --    0.17890   0.21254   0.27255   0.32237   0.38253
 Alpha virt. eigenvalues --    0.40407   0.42649   0.49080   0.54791   0.55555

 Mulliken charges:
               1
     1  C    0.132897
     2  N   -0.438408
     3  N   -0.013824
     4  N   -0.087424
     5  N   -0.243383
     6  H    0.265238
     7  H    0.384904
 Sum of Mulliken charges =   0.00000

 Dipole moment (field-independent basis, Debye):
    X=              2.5196    Y=              4.8322    Z=              0.0000  Tot=              5.4496
 Quadrupole moment (field-independent basis, Debye-Ang):
   XX=            -28.7741   YY=            -26.2367   ZZ=            -28.3142
   XY=              1.8099   XZ=              0.0000   YZ=              0.0000

  Exact polarizability:  38.355   0.942  37.734   0.000   0.000  17.468
 Approx polarizability:  67.081   0.450  70.787   0.000   0.000  26.564

                      1                      2                      3
                     A"                     A"                     A"
 Frequencies --    619.4004               708.3515               755.1085
 Red. masses --      1.9608                 1.7925                 7.5192
 Frc consts  --      0.4432                 0.5299                 2.5260
 IR Inten    --     87.7828                14.7705                10.0360

                      4                      5                      6
                     A"                     A'                     A'
 Frequencies --    859.3809               995.1070              1032.2735
 Red. masses --      1.3758                 4.1272                 5.9938
 Frc consts  --      0.5986                 2.4079                 3.7631
 IR Inten    --     19.8618                 4.4842                 1.0931

                      7                      8                      9
                     A'                     A'                     A'
 Frequencies --   1088.8358              1102.9951              1163.7361
 Red. masses --      3.9462                 3.6543                 2.0882
 Frc consts  --      2.7565                 2.6194                 1.6662
 IR Inten    --     19.6191                29.9219                12.4454

                     10                     11                     12
                     A'                     A'                     A'
 Frequencies --   1293.1763              1337.4251              1492.0453
 Red. masses --      2.5765                 9.7268                 3.5040
 Frc consts  --      2.5386                10.2508                 4.5960
 IR Inten    --      1.1332                17.9551                 8.8322

                     13                     14                     15
                     A'                     A'                     A'
 Frequencies --   1545.4620              3306.5391              3705.6489
 Red. masses --      3.1010                 1.1017                 1.0837
 Frc consts  --      4.3639                 7.0967                 8.7680
 IR Inten    --     17.9541                 0.5784                80.0441

 - Thermochemistry -
 -------------------
 Temperature   298.150 Kelvin.  Pressure   1.00000 Atm.
 Atom     1 has atomic number  6 and mass  12.00000

 Molecular mass:    70.02795 amu.
 Principal axes and moments of inertia in atomic units:
                           1         2         3
     Eigenvalues --   169.18765 172.19314 341.38080
           X            0.83777   0.54603   0.00000
           Y           -0.54603   0.83777   0.00000
           Z            0.00000   0.00000   1.00000
 This molecule is an asymmetric top.
 Rotational symmetry number  1.
 Rotational temperatures (Kelvin)      0.51194     0.50300     0.25372
 Rotational constants (GHZ):          10.66710    10.48091     5.28659
 Zero-point vibrational energy     125640.7 (Joules/Mol)
                                   30.02885 (Kcal/Mol)
 Warning -- explicit consideration of   1 degrees of freedom as
           vibrations may cause significant error
 Vibrational temperatures:    891.18  1019.16  1086.43  1236.46  1431.74
          (Kelvin)           1485.21  1566.59  1586.96  1674.35  1860.59
                             1924.25  2146.72  2223.57  4757.37  5331.60

 Zero-point correction=                           0.047854 (Hartree/Particle)
 Thermal correction to Energy=                    0.051271
 Thermal correction to Enthalpy=                  0.052215
 Thermal correction to Gibbs Free Energy=         0.021798
 Sum of electronic and zero-point Energies=           -258.000849
 Sum of electronic and thermal Energies=              -257.997432
 Sum of electronic and thermal Enthalpies=            -257.996488
 Sum of electronic and thermal Free Energies=         -258.026906

                     E (Thermal)             CV                S
                      KCal/Mol        Cal/Mol-Kelvin    Cal/Mol-Kelvin
 Total                   32.173             10.997             64.019
 Electronic               0.000              0.000              0.000
 Translational            0.889              2.981             38.656
 Rotational               0.889              2.981             23.812
 Vibrational             30.396              5.035              1.551
 Vibration     1          0.979              0.991              0.417

 Normal termination of Gaussian 09 at Tue Nov 26 10:41:30 2013.
