 Gaussian 09, Revision D.01,
 Gaussian 09:  EM64L-G09RevD.01 24-Apr-2013

 -----------------------------------
 #HSEh1PBE/cc-pVTZ opt=z-matrix freq
 -----------------------------------

 ------------------------------------------------------------------
 1H-tetrazole CH2N4 casno=288948 state=1 config=1 method=57 basis=6
 ------------------------------------------------------------------
 Symbolic Z-matrix:
 Charge =  0 Multiplicity = 1

 SCF Done:  E(RHSEH1PBE) =  -258.081608900     A.U. after   14 cycles
 SCF Done:  E(RHSEH1PBE) =  -258.083085068     A.U. after   11 cycles
 SCF Done:  E(RHSEH1PBE) =  -258.083108669     A.U. after   10 cycles
 SCF Done:  E(RHSEH1PBE) =  -258.083126958     A.U. after   10 cycles
 SCF Done:  E(RHSEH1PBE) =  -258.083076280     A.U. after    9 cycles
 SCF Done:  E(RHSEH1PBE) =  -258.083136843     A.U. after    8 cycles
 SCF Done:  E(RHSEH1PBE) =  -258.083138827     A.U. after    8 cycles
 SCF Done:  E(RHSEH1PBE) =  -258.083137059     A.U. after    9 cycles
 SCF Done:  E(RHSEH1PBE) =  -258.083141039     A.U. after    5 cycles
 SCF Done:  E(RHSEH1PBE) =  -258.083137805     A.U. after    9 cycles
 SCF Done:  E(RHSEH1PBE) =  -258.083140364     A.U. after    9 cycles
 SCF Done:  E(RHSEH1PBE) =  -258.083141777     A.U. after    8 cycles
 SCF Done:  E(RHSEH1PBE) =  -258.083141659     A.U. after    6 cycles
 SCF Done:  E(RHSEH1PBE) =  -258.083141814     A.U. after    6 cycles
 SCF Done:  E(RHSEH1PBE) =  -258.083140318     A.U. after    8 cycles
 SCF Done:  E(RHSEH1PBE) =  -258.076171336     A.U. after   13 cycles
 SCF Done:  E(RHSEH1PBE) =  -258.083141815     A.U. after    8 cycles
 SCF Done:  E(RHSEH1PBE) =  -258.083103638     A.U. after    9 cycles
 SCF Done:  E(RHSEH1PBE) =  -258.083141802     A.U. after    8 cycles
 Optimization completed.
    -- Stationary point found.
 Normal termination of Gaussian 09 at Tue Nov 26 10:38:08 2013.

 ----------------------------------------------------------------------
 #N Geom=AllCheck Guess=TCheck SCRF=Check GenChk RHSEH1PBE/CC-pVTZ Freq
 ----------------------------------------------------------------------

 Structure from the checkpoint file:  "/tmp/rdj3/g09-23219/Gau-3543.chk"
 ------------------------------------------------------------------
 1H-tetrazole CH2N4 casno=288948 state=1 config=1 method=57 basis=6
 ------------------------------------------------------------------
 Charge =  0 Multiplicity = 1

                         Standard orientation:
 ---------------------------------------------------------------------
 Center     Atomic      Atomic             Coordinates (Angstroms)
 Number     Number       Type             X           Y           Z
 ---------------------------------------------------------------------
      1          6           0        1.060580    0.231729    0.000000
      2          7           0        0.000000    1.045975    0.000000
      3          7           0       -1.108488    0.301509    0.000000
      4          7           0       -0.718707   -0.916677    0.000000
      5          7           0        0.628211   -1.001481    0.000000
      6          1           0        2.087390    0.554874    0.000000
      7          1           0       -0.057981    2.049464    0.000000
 ---------------------------------------------------------------------

 SCF Done:  E(RHSEH1PBE) =  -258.083141802     A.U. after    1 cycles

 The electronic state is 1-A'.
 Alpha  occ. eigenvalues --  -14.48667 -14.45005 -14.43304 -14.40403 -10.30174
 Alpha  occ. eigenvalues --   -1.17194  -0.96684  -0.91120  -0.69126  -0.67782
 Alpha  occ. eigenvalues --   -0.60603  -0.51041  -0.50465  -0.38685  -0.33806
 Alpha  occ. eigenvalues --   -0.31383  -0.30829  -0.29362
 Alpha virt. eigenvalues --   -0.03270   0.00321   0.01156   0.05702   0.13983
 Alpha virt. eigenvalues --    0.16068   0.16767   0.24069   0.26900   0.28791
 Alpha virt. eigenvalues --    0.35856   0.36486   0.38818   0.41037   0.42143

 Mulliken charges:
               1
     1  C   -0.022241
     2  N    0.010982
     3  N   -0.082868
     4  N   -0.074998
     5  N   -0.152517
     6  H    0.140860
     7  H    0.180782
 Sum of Mulliken charges =   0.00000

 Dipole moment (field-independent basis, Debye):
    X=              2.4514    Y=              4.7101    Z=              0.0000  Tot=              5.3099
 Quadrupole moment (field-independent basis, Debye-Ang):
   XX=            -28.7751   YY=            -26.2094   ZZ=            -28.2207
   XY=              1.8052   XZ=              0.0000   YZ=              0.0000

  Exact polarizability:  40.958   0.829  40.205   0.000   0.000  20.745
 Approx polarizability:  70.951   0.601  74.243   0.000   0.000  32.623

                      1                      2                      3
                     A"                     A"                     A"
 Frequencies --    608.9572               703.8745               758.4177
 Red. masses --      1.6816                 2.0128                 8.2916
 Frc consts  --      0.3674                 0.5876                 2.8100
 IR Inten    --     79.2350                 6.2043                 8.2502

                      4                      5                      6
                     A"                     A'                     A'
 Frequencies --    876.7222               992.7514              1028.4916
 Red. masses --      1.3974                 4.1598                 5.7202
 Frc consts  --      0.6328                 2.4155                 3.5650
 IR Inten    --     17.4630                 3.5807                 1.1410

                      7                      8                      9
                     A'                     A'                     A'
 Frequencies --   1083.6196              1094.0334              1160.0214
 Red. masses --      3.7979                 3.6071                 2.0907
 Frc consts  --      2.6276                 2.5437                 1.6576
 IR Inten    --     19.7067                27.6231                13.4708

                     10                     11                     12
                     A'                     A'                     A'
 Frequencies --   1285.6019              1331.7371              1480.0851
 Red. masses --      2.4805                10.3973                 3.3536
 Frc consts  --      2.4155                10.8645                 4.3285
 IR Inten    --      1.6316                13.9041                 8.0623

                     13                     14                     15
                     A'                     A'                     A'
 Frequencies --   1530.8315              3294.2198              3683.1565
 Red. masses --      3.5427                 1.1016                 1.0838
 Frc consts  --      4.8915                 7.0435                 8.6623
 IR Inten    --     15.7797                 1.4614                94.2410

 - Thermochemistry -
 -------------------
 Temperature   298.150 Kelvin.  Pressure   1.00000 Atm.
 Atom     1 has atomic number  6 and mass  12.00000

 Molecular mass:    70.02795 amu.
 Principal axes and moments of inertia in atomic units:
                           1         2         3
     Eigenvalues --   168.81943 171.49278 340.31221
           X            0.83820   0.54536   0.00000
           Y           -0.54536   0.83820   0.00000
           Z            0.00000   0.00000   1.00000
 This molecule is an asymmetric top.
 Rotational symmetry number  1.
 Rotational temperatures (Kelvin)      0.51306     0.50506     0.25451
 Rotational constants (GHZ):          10.69036    10.52372     5.30319
 Zero-point vibrational energy     125084.7 (Joules/Mol)
                                   29.89595 (Kcal/Mol)
 Warning -- explicit consideration of   1 degrees of freedom as
           vibrations may cause significant error
 Vibrational temperatures:    876.15  1012.72  1091.19  1261.41  1428.35
          (Kelvin)           1479.77  1559.09  1574.07  1669.01  1849.69
                             1916.07  2129.51  2202.52  4739.64  5299.23

 Zero-point correction=                           0.047642 (Hartree/Particle)
 Thermal correction to Energy=                    0.051065
 Thermal correction to Enthalpy=                  0.052009
 Thermal correction to Gibbs Free Energy=         0.021588
 Sum of electronic and zero-point Energies=           -258.035500
 Sum of electronic and thermal Energies=              -258.032077
 Sum of electronic and thermal Enthalpies=            -258.031132
 Sum of electronic and thermal Free Energies=         -258.061554

                     E (Thermal)             CV                S
                      KCal/Mol        Cal/Mol-Kelvin    Cal/Mol-Kelvin
 Total                   32.044             11.031             64.027
 Electronic               0.000              0.000              0.000
 Translational            0.889              2.981             38.656
 Rotational               0.889              2.981             23.803
 Vibrational             30.266              5.069              1.568
 Vibration     1          0.968              1.013              0.435

 Normal termination of Gaussian 09 at Tue Nov 26 10:40:10 2013.
