 Gaussian 09, Revision D.01,
 Gaussian 09:  EM64L-G09RevD.01 24-Apr-2013

 ------------------------------------
 #HSEh1PBE/6-311G** opt=z-matrix freq
 ------------------------------------

 -------------------------------------------------------------------
 1H-tetrazole CH2N4 casno=288948 state=1 config=1 method=57 basis=21
 -------------------------------------------------------------------
 Symbolic Z-matrix:
 Charge =  0 Multiplicity = 1

 SCF Done:  E(RHSEH1PBE) =  -258.051824559     A.U. after   15 cycles
 SCF Done:  E(RHSEH1PBE) =  -258.053712078     A.U. after   12 cycles
 SCF Done:  E(RHSEH1PBE) =  -258.053750793     A.U. after   11 cycles
 SCF Done:  E(RHSEH1PBE) =  -258.053582519     A.U. after   11 cycles
 SCF Done:  E(RHSEH1PBE) =  -258.053759436     A.U. after    9 cycles
 SCF Done:  E(RHSEH1PBE) =  -258.053761425     A.U. after    9 cycles
 SCF Done:  E(RHSEH1PBE) =  -258.053763765     A.U. after    9 cycles
 SCF Done:  E(RHSEH1PBE) =  -258.053764016     A.U. after    7 cycles
 SCF Done:  E(RHSEH1PBE) =  -258.053748469     A.U. after   10 cycles
 SCF Done:  E(RHSEH1PBE) =  -258.053764011     A.U. after    8 cycles
 SCF Done:  E(RHSEH1PBE) =  -258.053764088     A.U. after    6 cycles
 SCF Done:  E(RHSEH1PBE) =  -258.053763829     A.U. after    8 cycles
 SCF Done:  E(RHSEH1PBE) =  -258.053764082     A.U. after    4 cycles
 SCF Done:  E(RHSEH1PBE) =  -258.053764105     A.U. after    6 cycles
 Optimization completed.
    -- Stationary point found.
 Normal termination of Gaussian 09 at Tue Nov 26 10:23:03 2013.

 ----------------------------------------------------------------------
 #N Geom=AllCheck Guess=TCheck SCRF=Check GenChk RHSEH1PBE/6-311G(d,p)
 Freq
 ----------------------------------------------------------------------

 Structure from the checkpoint file:  "/tmp/rdj3/g09-23219/Gau-27152.chk"
 -------------------------------------------------------------------
 1H-tetrazole CH2N4 casno=288948 state=1 config=1 method=57 basis=21
 -------------------------------------------------------------------
 Charge =  0 Multiplicity = 1

                         Standard orientation:
 ---------------------------------------------------------------------
 Center     Atomic      Atomic             Coordinates (Angstroms)
 Number     Number       Type             X           Y           Z
 ---------------------------------------------------------------------
      1          6           0        1.062817    0.231125    0.000000
      2          7           0        0.000000    1.047909    0.000000
      3          7           0       -1.110969    0.301920    0.000000
      4          7           0       -0.719310   -0.917458    0.000000
      5          7           0        0.629137   -1.002930    0.000000
      6          1           0        2.091000    0.553972    0.000000
      7          1           0       -0.059912    2.053192    0.000000
 ---------------------------------------------------------------------

 SCF Done:  E(RHSEH1PBE) =  -258.053764105     A.U. after    1 cycles

 The electronic state is 1-A'.
 Alpha  occ. eigenvalues --  -14.48163 -14.44317 -14.42501 -14.39694 -10.29939
 Alpha  occ. eigenvalues --   -1.17426  -0.96840  -0.91342  -0.69255  -0.67863
 Alpha  occ. eigenvalues --   -0.60711  -0.50924  -0.50592  -0.38585  -0.33763
 Alpha  occ. eigenvalues --   -0.31409  -0.30759  -0.29203
 Alpha virt. eigenvalues --   -0.03246   0.00550   0.01635   0.06027   0.16476
 Alpha virt. eigenvalues --    0.17782   0.21241   0.27160   0.32211   0.38221
 Alpha virt. eigenvalues --    0.40365   0.42688   0.48672   0.54251   0.55411

 Mulliken charges:
               1
     1  C    0.234347
     2  N   -0.283734
     3  N   -0.031548
     4  N   -0.086254
     5  N   -0.247817
     6  H    0.154727
     7  H    0.260279
 Sum of Mulliken charges =   0.00000

 Dipole moment (field-independent basis, Debye):
    X=              2.5133    Y=              4.7999    Z=              0.0000  Tot=              5.4181
 Quadrupole moment (field-independent basis, Debye-Ang):
   XX=            -28.7914   YY=            -26.3179   ZZ=            -28.2270
   XY=              1.8033   XZ=              0.0000   YZ=              0.0000

  Exact polarizability:  38.566   0.966  37.972   0.000   0.000  17.712
 Approx polarizability:  67.558   0.524  71.398   0.000   0.000  26.988

                      1                      2                      3
                     A"                     A"                     A"
 Frequencies --    626.5427               706.6602               754.7257
 Red. masses --      1.9672                 1.7844                 7.4206
 Frc consts  --      0.4550                 0.5250                 2.4904
 IR Inten    --     80.5490                14.4697                10.3298

                      4                      5                      6
                     A"                     A'                     A'
 Frequencies --    875.0181               994.3492              1030.3980
 Red. masses --      1.3809                 4.0069                 5.7786
 Frc consts  --      0.6229                 2.3342                 3.6148
 IR Inten    --     17.5901                 4.2498                 1.0707

                      7                      8                      9
                     A'                     A'                     A'
 Frequencies --   1085.9937              1100.6090              1161.6345
 Red. masses --      3.6830                 3.6247                 2.1345
 Frc consts  --      2.5592                 2.5869                 1.6970
 IR Inten    --     22.1590                27.4377                13.0588

                     10                     11                     12
                     A'                     A'                     A'
 Frequencies --   1288.4996              1337.0468              1483.9315
 Red. masses --      2.5555                 9.6733                 3.4681
 Frc consts  --      2.4997                10.1887                 4.4996
 IR Inten    --      1.2478                17.7417                 8.6428

                     13                     14                     15
                     A'                     A'                     A'
 Frequencies --   1536.7298              3301.2956              3687.8008
 Red. masses --      3.4193                 1.1017                 1.0840
 Frc consts  --      4.7576                 7.0741                 8.6855
 IR Inten    --     16.4304                 1.7781               100.1154

 - Thermochemistry -
 -------------------
 Temperature   298.150 Kelvin.  Pressure   1.00000 Atm.
 Atom     1 has atomic number  6 and mass  12.00000

 Molecular mass:    70.02795 amu.
 Principal axes and moments of inertia in atomic units:
                           1         2         3
     Eigenvalues --   169.23185 172.18611 341.41796
           X            0.84332   0.53742   0.00000
           Y           -0.53742   0.84332   0.00000
           Z            0.00000   0.00000   1.00000
 This molecule is an asymmetric top.
 Rotational symmetry number  1.
 Rotational temperatures (Kelvin)      0.51181     0.50302     0.25369
 Rotational constants (GHZ):          10.66431    10.48134     5.28602
 Zero-point vibrational energy     125435.8 (Joules/Mol)
                                   29.97989 (Kcal/Mol)
 Vibrational temperatures:    901.45  1016.73  1085.88  1258.95  1430.64
          (Kelvin)           1482.51  1562.50  1583.53  1671.33  1853.86
                             1923.71  2135.04  2211.01  4749.82  5305.92

 Zero-point correction=                           0.047776 (Hartree/Particle)
 Thermal correction to Energy=                    0.051188
 Thermal correction to Enthalpy=                  0.052132
 Thermal correction to Gibbs Free Energy=         0.021722
 Sum of electronic and zero-point Energies=           -258.005988
 Sum of electronic and thermal Energies=              -258.002576
 Sum of electronic and thermal Enthalpies=            -258.001632
 Sum of electronic and thermal Free Energies=         -258.032042

                     E (Thermal)             CV                S
                      KCal/Mol        Cal/Mol-Kelvin    Cal/Mol-Kelvin
 Total                   32.121             10.979             64.005
 Electronic               0.000              0.000              0.000
 Translational            0.889              2.981             38.656
 Rotational               0.889              2.981             23.813
 Vibrational             30.344              5.017              1.536

 Normal termination of Gaussian 09 at Tue Nov 26 10:23:20 2013.
