 Gaussian 09, Revision D.01,
 Gaussian 09:  EM64L-G09RevD.01 24-Apr-2013

 ---------------------------------------
 #HSEh1PBE/aug-cc-pVTZ opt=z-matrix freq
 ---------------------------------------

 -------------------------------------------------------------------
 1H-tetrazole CH2N4 casno=288948 state=1 config=1 method=57 basis=18
 -------------------------------------------------------------------
 Symbolic Z-matrix:
 Charge =  0 Multiplicity = 1

 SCF Done:  E(RHSEH1PBE) =  -258.086177031     A.U. after   12 cycles
 SCF Done:  E(RHSEH1PBE) =  -258.087652746     A.U. after   10 cycles
 SCF Done:  E(RHSEH1PBE) =  -258.087679316     A.U. after    9 cycles
 SCF Done:  E(RHSEH1PBE) =  -258.087700731     A.U. after    8 cycles
 SCF Done:  E(RHSEH1PBE) =  -258.087302557     A.U. after    9 cycles
 SCF Done:  E(RHSEH1PBE) =  -258.087708982     A.U. after    7 cycles
 SCF Done:  E(RHSEH1PBE) =  -258.087711486     A.U. after    8 cycles
 SCF Done:  E(RHSEH1PBE) =  -258.087632464     A.U. after    9 cycles
 SCF Done:  E(RHSEH1PBE) =  -258.087714104     A.U. after    7 cycles
 SCF Done:  E(RHSEH1PBE) =  -258.087646312     A.U. after    9 cycles
 SCF Done:  E(RHSEH1PBE) =  -258.079619636     A.U. after   11 cycles
 SCF Done:  E(RHSEH1PBE) =  -258.086438983     A.U. after   11 cycles
 SCF Done:  E(RHSEH1PBE) =  -258.087714175     A.U. after    4 cycles
 SCF Done:  E(RHSEH1PBE) =  -258.087453715     A.U. after   10 cycles
 SCF Done:  E(RHSEH1PBE) =  -258.087714131     A.U. after    6 cycles
 SCF Done:  E(RHSEH1PBE) =  -258.087714643     A.U. after    7 cycles
 SCF Done:  E(RHSEH1PBE) =  -258.087714787     A.U. after    6 cycles
 SCF Done:  E(RHSEH1PBE) =  -258.087714797     A.U. after    6 cycles
 Optimization completed.
    -- Stationary point found.
 Normal termination of Gaussian 09 at Tue Nov 26 10:02:17 2013.

 ----------------------------------------------------------------------
 #N Geom=AllCheck Guess=TCheck SCRF=Check GenChk RHSEH1PBE/Aug-CC-pVTZ
 Freq
 ----------------------------------------------------------------------

 Structure from the checkpoint file:  "/tmp/rdj3/g09-23219/Gau-21232.chk"
 -------------------------------------------------------------------
 1H-tetrazole CH2N4 casno=288948 state=1 config=1 method=57 basis=18
 -------------------------------------------------------------------
 Charge =  0 Multiplicity = 1

                         Standard orientation:
 ---------------------------------------------------------------------
 Center     Atomic      Atomic             Coordinates (Angstroms)
 Number     Number       Type             X           Y           Z
 ---------------------------------------------------------------------
      1          6           0        1.060737    0.232238    0.000000
      2          7           0        0.000000    1.045658    0.000000
      3          7           0       -1.108485    0.301400    0.000000
      4          7           0       -0.718561   -0.917110    0.000000
      5          7           0        0.627976   -1.001092    0.000000
      6          1           0        2.087560    0.555378    0.000000
      7          1           0       -0.058495    2.049208    0.000000
 ---------------------------------------------------------------------

 SCF Done:  E(RHSEH1PBE) =  -258.087714797     A.U. after    1 cycles

 The electronic state is 1-A'.
 Alpha  occ. eigenvalues --  -14.49056 -14.45522 -14.43866 -14.40894 -10.30525
 Alpha  occ. eigenvalues --   -1.17622  -0.97093  -0.91530  -0.69512  -0.68186
 Alpha  occ. eigenvalues --   -0.60962  -0.51429  -0.50829  -0.39126  -0.34222
 Alpha  occ. eigenvalues --   -0.31772  -0.31309  -0.29842
 Alpha virt. eigenvalues --   -0.03907  -0.02909  -0.00642   0.00386   0.02811
 Alpha virt. eigenvalues --    0.03246   0.04944   0.05919   0.06722   0.07411
 Alpha virt. eigenvalues --    0.08413   0.08674   0.10013   0.11711   0.12501

 Mulliken charges:
               1
     1  C   -0.161034
     2  N    0.231046
     3  N   -0.297299
     4  N   -0.166371
     5  N   -0.251472
     6  H    0.514969
     7  H    0.130161
 Sum of Mulliken charges =   0.00000

 Dipole moment (field-independent basis, Debye):
    X=              2.5029    Y=              4.7357    Z=              0.0000  Tot=              5.3565
 Quadrupole moment (field-independent basis, Debye-Ang):
   XX=            -29.0967   YY=            -26.5759   ZZ=            -28.5735
   XY=              1.8562   XZ=              0.0000   YZ=              0.0000

  Exact polarizability:  45.080   0.537  44.519   0.000   0.000  26.147
 Approx polarizability:  75.254   0.448  78.672   0.000   0.000  39.348

                      1                      2                      3
                     A"                     A"                     A"
 Frequencies --    616.2548               703.4837               757.3497
 Red. masses --      1.7073                 1.9709                 8.3631
 Frc consts  --      0.3820                 0.5747                 2.8263
 IR Inten    --     79.4768                 7.3378                 7.7664

                      4                      5                      6
                     A"                     A'                     A'
 Frequencies --    878.0525               991.2461              1027.2642
 Red. masses --      1.3986                 4.1664                 5.9318
 Frc consts  --      0.6353                 2.4120                 3.6881
 IR Inten    --     16.3983                 3.2820                 0.9035

                      7                      8                      9
                     A'                     A'                     A'
 Frequencies --   1083.2531              1093.0117              1158.3604
 Red. masses --      3.8941                 3.5296                 2.0666
 Frc consts  --      2.6922                 2.4844                 1.6338
 IR Inten    --     17.7425                28.9458                12.5165

                     10                     11                     12
                     A'                     A'                     A'
 Frequencies --   1284.4441              1328.2226              1478.6957
 Red. masses --      2.4687                10.5913                 3.3694
 Frc consts  --      2.3997                11.0089                 4.3407
 IR Inten    --      1.6168                13.0357                 8.7200

                     13                     14                     15
                     A'                     A'                     A'
 Frequencies --   1528.0419              3294.2226              3678.8643
 Red. masses --      3.5078                 1.1018                 1.0838
 Frc consts  --      4.8256                 7.0443                 8.6426
 IR Inten    --     16.3931                 1.9319                96.8970

 - Thermochemistry -
 -------------------
 Temperature   298.150 Kelvin.  Pressure   1.00000 Atm.
 Atom     1 has atomic number  6 and mass  12.00000

 Molecular mass:    70.02795 amu.
 Principal axes and moments of inertia in atomic units:
                           1         2         3
     Eigenvalues --   168.85577 171.42064 340.27641
           X            0.84545   0.53405   0.00000
           Y           -0.53405   0.84545   0.00000
           Z            0.00000   0.00000   1.00000
 This molecule is an asymmetric top.
 Rotational symmetry number  1.
 Rotational temperatures (Kelvin)      0.51295     0.50527     0.25454
 Rotational constants (GHZ):          10.68806    10.52814     5.30375
 Zero-point vibrational energy     125014.3 (Joules/Mol)
                                   29.87915 (Kcal/Mol)
 Warning -- explicit consideration of   1 degrees of freedom as
           vibrations may cause significant error
 Vibrational temperatures:    886.65  1012.15  1089.66  1263.32  1426.18
          (Kelvin)           1478.00  1558.56  1572.60  1666.62  1848.03
                             1911.01  2127.51  2198.51  4739.65  5293.06

 Zero-point correction=                           0.047615 (Hartree/Particle)
 Thermal correction to Energy=                    0.051036
 Thermal correction to Enthalpy=                  0.051980
 Thermal correction to Gibbs Free Energy=         0.021563
 Sum of electronic and zero-point Energies=           -258.040099
 Sum of electronic and thermal Energies=              -258.036679
 Sum of electronic and thermal Enthalpies=            -258.035735
 Sum of electronic and thermal Free Energies=         -258.066152

                     E (Thermal)             CV                S
                      KCal/Mol        Cal/Mol-Kelvin    Cal/Mol-Kelvin
 Total                   32.025             11.025             64.018
 Electronic               0.000              0.000              0.000
 Translational            0.889              2.981             38.656
 Rotational               0.889              2.981             23.803
 Vibrational             30.248              5.063              1.559
 Vibration     1          0.976              0.998              0.423

 Normal termination of Gaussian 09 at Tue Nov 26 10:15:43 2013.
