 Gaussian 09, Revision D.01,
 Gaussian 09:  EM64L-G09RevD.01 24-Apr-2013

 ---------------------------------
 #HSEh1PBE/6-31G opt=z-matrix freq
 ---------------------------------

 ------------------------------------------------------------------
 1H-tetrazole CH2N4 casno=288948 state=1 config=1 method=57 basis=9
 ------------------------------------------------------------------
 Symbolic Z-matrix:
 Charge =  0 Multiplicity = 1

 SCF Done:  E(RHSEH1PBE) =  -257.856463260     A.U. after   15 cycles
 SCF Done:  E(RHSEH1PBE) =  -257.866720013     A.U. after   15 cycles
 SCF Done:  E(RHSEH1PBE) =  -257.866987574     A.U. after   14 cycles
 SCF Done:  E(RHSEH1PBE) =  -257.866107899     A.U. after   14 cycles
 SCF Done:  E(RHSEH1PBE) =  -257.867131470     A.U. after   11 cycles
 SCF Done:  E(RHSEH1PBE) =  -257.867154425     A.U. after   10 cycles
 SCF Done:  E(RHSEH1PBE) =  -257.866694322     A.U. after   13 cycles
 SCF Done:  E(RHSEH1PBE) =  -257.867155613     A.U. after   10 cycles
 SCF Done:  E(RHSEH1PBE) =  -257.867159154     A.U. after    9 cycles
 SCF Done:  E(RHSEH1PBE) =  -257.866850006     A.U. after   14 cycles
 SCF Done:  E(RHSEH1PBE) =  -257.867159950     A.U. after   10 cycles
 SCF Done:  E(RHSEH1PBE) =  -257.867160083     A.U. after    7 cycles
 SCF Done:  E(RHSEH1PBE) =  -257.867159916     A.U. after    8 cycles
 SCF Done:  E(RHSEH1PBE) =  -257.867160090     A.U. after    6 cycles
 SCF Done:  E(RHSEH1PBE) =  -257.867160087     A.U. after    7 cycles
 Optimization completed.
    -- Stationary point found.
 Normal termination of Gaussian 09 at Tue Nov 26 10:42:38 2013.

 --------------------------------------------------------------------
 #N Geom=AllCheck Guess=TCheck SCRF=Check GenChk RHSEH1PBE/6-31G Freq
 --------------------------------------------------------------------

 Structure from the checkpoint file:  "/tmp/rdj3/g09-23219/Gau-8844.chk"
 ------------------------------------------------------------------
 1H-tetrazole CH2N4 casno=288948 state=1 config=1 method=57 basis=9
 ------------------------------------------------------------------
 Charge =  0 Multiplicity = 1

                         Standard orientation:
 ---------------------------------------------------------------------
 Center     Atomic      Atomic             Coordinates (Angstroms)
 Number     Number       Type             X           Y           Z
 ---------------------------------------------------------------------
      1          6           0        1.079645    0.250588    0.000000
      2          7           0        0.000000    1.065838    0.000000
      3          7           0       -1.141605    0.298093    0.000000
      4          7           0       -0.733578   -0.945980    0.000000
      5          7           0        0.658503   -1.009995    0.000000
      6          1           0        2.103981    0.572311    0.000000
      7          1           0       -0.065095    2.068470    0.000000
 ---------------------------------------------------------------------

 SCF Done:  E(RHSEH1PBE) =  -257.867160087     A.U. after    1 cycles

 The electronic state is 1-A'.
 Alpha  occ. eigenvalues --  -14.50885 -14.48398 -14.46442 -14.43630 -10.33014
 Alpha  occ. eigenvalues --   -1.19271  -0.98176  -0.93827  -0.70292  -0.68915
 Alpha  occ. eigenvalues --   -0.61702  -0.51447  -0.51017  -0.38098  -0.34316
 Alpha  occ. eigenvalues --   -0.32373  -0.30837  -0.29674
 Alpha virt. eigenvalues --   -0.05085  -0.01136   0.04784   0.09028   0.15015
 Alpha virt. eigenvalues --    0.17605   0.23887   0.29791   0.37609   0.51475
 Alpha virt. eigenvalues --    0.53570   0.60992   0.64637   0.65859   0.66639

 Mulliken charges:
               1
     1  C    0.305690
     2  N   -0.585523
     3  N    0.021365
     4  N   -0.091258
     5  N   -0.301568
     6  H    0.254034
     7  H    0.397259
 Sum of Mulliken charges =   0.00000

 Dipole moment (field-independent basis, Debye):
    X=              2.7595    Y=              5.1823    Z=              0.0000  Tot=              5.8713
 Quadrupole moment (field-independent basis, Debye-Ang):
   XX=            -29.6848   YY=            -27.2616   ZZ=            -28.6866
   XY=              2.0535   XZ=              0.0000   YZ=              0.0000

  Exact polarizability:  37.452   1.042  36.957   0.000   0.000  13.931
 Approx polarizability:  68.524  -0.140  73.901   0.000   0.000  18.431

                      1                      2                      3
                     A"                     A"                     A"
 Frequencies --    680.9006               727.3922               752.1996
 Red. masses --      3.9584                12.3616                 1.1285
 Frc consts  --      1.0813                 3.8536                 0.3762
 IR Inten    --     10.4395                 0.4459               166.1886

                      4                      5                      6
                     A'                     A"                     A'
 Frequencies --    893.9958               894.2170               974.6176
 Red. masses --      7.9664                 1.4034                 5.5441
 Frc consts  --      3.7513                 0.6612                 3.1028
 IR Inten    --      8.3374                14.5304                17.0574

                      7                      8                      9
                     A'                     A'                     A'
 Frequencies --   1022.9709              1050.7936              1162.1912
 Red. masses --      6.8971                 4.5933                 1.9894
 Frc consts  --      4.2525                 2.9882                 1.5832
 IR Inten    --      5.2651                14.1635                14.1851

                     10                     11                     12
                     A'                     A'                     A'
 Frequencies --   1221.9097              1264.1549              1436.0596
 Red. masses --      4.0696                 3.0044                 3.2417
 Frc consts  --      3.5800                 2.8289                 3.9388
 IR Inten    --     12.4930                 1.1809                 4.1454

                     13                     14                     15
                     A'                     A'                     A'
 Frequencies --   1506.1248              3383.9862              3745.9428
 Red. masses --      2.1759                 1.1030                 1.0847
 Frc consts  --      2.9081                 7.4415                 8.9680
 IR Inten    --     38.4383                 5.4816               110.8316

 - Thermochemistry -
 -------------------
 Temperature   298.150 Kelvin.  Pressure   1.00000 Atm.
 Atom     1 has atomic number  6 and mass  12.00000

 Molecular mass:    70.02795 amu.
 Principal axes and moments of inertia in atomic units:
                           1         2         3
     Eigenvalues --   175.88289 179.49822 355.38111
           X            0.99372   0.11190   0.00000
           Y           -0.11190   0.99372   0.00000
           Z            0.00000   0.00000   1.00000
 This molecule is an asymmetric top.
 Rotational symmetry number  1.
 Rotational temperatures (Kelvin)      0.49245     0.48253     0.24372
 Rotational constants (GHZ):          10.26104    10.05437     5.07833
 Zero-point vibrational energy     123917.9 (Joules/Mol)
                                   29.61709 (Kcal/Mol)
 Vibrational temperatures:    979.66  1046.55  1082.25  1286.26  1286.58
          (Kelvin)           1402.26  1471.83  1511.86  1672.13  1758.05
                             1818.83  2066.17  2166.97  4868.80  5389.57

 Zero-point correction=                           0.047198 (Hartree/Particle)
 Thermal correction to Energy=                    0.050620
 Thermal correction to Enthalpy=                  0.051565
 Thermal correction to Gibbs Free Energy=         0.021090
 Sum of electronic and zero-point Energies=           -257.819962
 Sum of electronic and thermal Energies=              -257.816540
 Sum of electronic and thermal Enthalpies=            -257.815595
 Sum of electronic and thermal Free Energies=         -257.846070

                     E (Thermal)             CV                S
                      KCal/Mol        Cal/Mol-Kelvin    Cal/Mol-Kelvin
 Total                   31.765             11.193             64.139
 Electronic               0.000              0.000              0.000
 Translational            0.889              2.981             38.656
 Rotational               0.889              2.981             23.932
 Vibrational             29.987              5.232              1.550

 Normal termination of Gaussian 09 at Tue Nov 26 10:42:42 2013.
