 Gaussian 09, Revision D.01,
 Gaussian 09:  EM64L-G09RevD.01 24-Apr-2013

 --------------------------------
 #HSEh1PBE/TZVP opt=z-matrix freq
 --------------------------------

 -------------------------------------------------------------------
 1H-tetrazole CH2N4 casno=288948 state=1 config=1 method=57 basis=32
 -------------------------------------------------------------------
 Symbolic Z-matrix:
 Charge =  0 Multiplicity = 1

 SCF Done:  E(RHSEH1PBE) =  -258.071370009     A.U. after   15 cycles
 SCF Done:  E(RHSEH1PBE) =  -258.073044693     A.U. after   12 cycles
 SCF Done:  E(RHSEH1PBE) =  -258.073069702     A.U. after   11 cycles
 SCF Done:  E(RHSEH1PBE) =  -258.073080132     A.U. after   11 cycles
 SCF Done:  E(RHSEH1PBE) =  -258.070428159     A.U. after   12 cycles
 SCF Done:  E(RHSEH1PBE) =  -258.073090978     A.U. after   10 cycles
 SCF Done:  E(RHSEH1PBE) =  -258.073094707     A.U. after    9 cycles
 SCF Done:  E(RHSEH1PBE) =  -258.072428457     A.U. after   12 cycles
 SCF Done:  E(RHSEH1PBE) =  -258.073094824     A.U. after    8 cycles
 SCF Done:  E(RHSEH1PBE) =  -258.073095688     A.U. after    8 cycles
 SCF Done:  E(RHSEH1PBE) =  -258.073095870     A.U. after    6 cycles
 SCF Done:  E(RHSEH1PBE) =  -258.073095559     A.U. after    8 cycles
 SCF Done:  E(RHSEH1PBE) =  -258.073095859     A.U. after    4 cycles
 SCF Done:  E(RHSEH1PBE) =  -258.073095874     A.U. after    5 cycles
 SCF Done:  E(RHSEH1PBE) =  -258.073095856     A.U. after    7 cycles
 SCF Done:  E(RHSEH1PBE) =  -258.073095874     A.U. after    6 cycles
 SCF Done:  E(RHSEH1PBE) =  -258.073095360     A.U. after    9 cycles
 SCF Done:  E(RHSEH1PBE) =  -258.073095870     A.U. after    8 cycles
 SCF Done:  E(RHSEH1PBE) =  -258.073095876     A.U. after    5 cycles
 Optimization completed.
    -- Stationary point found.
 Normal termination of Gaussian 09 at Tue Nov 26 10:25:45 2013.

 -------------------------------------------------------------------
 #N Geom=AllCheck Guess=TCheck SCRF=Check GenChk RHSEH1PBE/TZVP Freq
 -------------------------------------------------------------------

 Structure from the checkpoint file:  "/tmp/rdj3/g09-23219/Gau-30244.chk"
 -------------------------------------------------------------------
 1H-tetrazole CH2N4 casno=288948 state=1 config=1 method=57 basis=32
 -------------------------------------------------------------------
 Charge =  0 Multiplicity = 1

                         Standard orientation:
 ---------------------------------------------------------------------
 Center     Atomic      Atomic             Coordinates (Angstroms)
 Number     Number       Type             X           Y           Z
 ---------------------------------------------------------------------
      1          6           0        1.061938    0.232311    0.000000
      2          7           0        0.000000    1.047416    0.000000
      3          7           0       -1.110431    0.300043    0.000000
      4          7           0       -0.718994   -0.917771    0.000000
      5          7           0        0.629361   -1.001019    0.000000
      6          1           0        2.090161    0.553198    0.000000
      7          1           0       -0.061339    2.052248    0.000000
 ---------------------------------------------------------------------

 SCF Done:  E(RHSEH1PBE) =  -258.073095876     A.U. after    1 cycles

 The electronic state is 1-A'.
 Alpha  occ. eigenvalues --  -14.48967 -14.45297 -14.43510 -14.40637 -10.30503
 Alpha  occ. eigenvalues --   -1.18057  -0.97351  -0.91901  -0.69723  -0.68388
 Alpha  occ. eigenvalues --   -0.61196  -0.51391  -0.51039  -0.39101  -0.34251
 Alpha  occ. eigenvalues --   -0.31919  -0.31256  -0.29710
 Alpha virt. eigenvalues --   -0.03861  -0.00138   0.00659   0.06077   0.10862
 Alpha virt. eigenvalues --    0.11823   0.15574   0.19345   0.22350   0.26251
 Alpha virt. eigenvalues --    0.27686   0.31389   0.33263   0.34262   0.35724

 Mulliken charges:
               1
     1  C   -0.132391
     2  N   -0.077601
     3  N   -0.078140
     4  N   -0.078809
     5  N   -0.051290
     6  H    0.146831
     7  H    0.271401
 Sum of Mulliken charges =   0.00000

 Dipole moment (field-independent basis, Debye):
    X=              2.5757    Y=              4.8960    Z=              0.0000  Tot=              5.5322
 Quadrupole moment (field-independent basis, Debye-Ang):
   XX=            -29.2054   YY=            -26.6475   ZZ=            -28.4521
   XY=              1.8661   XZ=              0.0000   YZ=              0.0000

  Exact polarizability:  41.195   0.699  40.700   0.000   0.000  21.797
 Approx polarizability:  69.333   0.267  73.362   0.000   0.000  32.286

                      1                      2                      3
                     A"                     A"                     A"
 Frequencies --    595.7143               703.0532               748.4463
 Red. masses --      2.1176                 1.7809                 7.1240
 Frc consts  --      0.4428                 0.5186                 2.3512
 IR Inten    --     70.2563                16.1777                10.2575

                      4                      5                      6
                     A"                     A'                     A'
 Frequencies --    852.9532               991.3677              1027.5045
 Red. masses --      1.3271                 4.4126                 6.3005
 Frc consts  --      0.5688                 2.5551                 3.9192
 IR Inten    --     25.0041                 4.3546                 0.5196

                      7                      8                      9
                     A'                     A'                     A'
 Frequencies --   1074.0870              1092.2233              1161.5194
 Red. masses --      4.3020                 3.4589                 2.0323
 Frc consts  --      2.9241                 2.4312                 1.6154
 IR Inten    --     18.7077                31.4528                14.1594

                     10                     11                     12
                     A'                     A'                     A'
 Frequencies --   1286.4548              1327.1606              1478.1108
 Red. masses --      2.3865                10.2464                 3.3186
 Frc consts  --      2.3270                10.6333                 4.2719
 IR Inten    --      2.4362                17.1870                 8.8791

                     13                     14                     15
                     A'                     A'                     A'
 Frequencies --   1531.7837              3302.2590              3683.0488
 Red. masses --      3.3643                 1.1019                 1.0840
 Frc consts  --      4.6510                 7.0795                 8.6633
 IR Inten    --     17.1155                 2.6559               105.4620

 - Thermochemistry -
 -------------------
 Temperature   298.150 Kelvin.  Pressure   1.00000 Atm.
 Atom     1 has atomic number  6 and mass  12.00000

 Molecular mass:    70.02795 amu.
 Principal axes and moments of inertia in atomic units:
                           1         2         3
     Eigenvalues --   169.16058 171.83347 340.99405
           X            0.86767   0.49714   0.00000
           Y           -0.49714   0.86767   0.00000
           Z            0.00000   0.00000   1.00000
 This molecule is an asymmetric top.
 Rotational symmetry number  1.
 Rotational temperatures (Kelvin)      0.51202     0.50406     0.25400
 Rotational constants (GHZ):          10.66880    10.50285     5.29259
 Zero-point vibrational energy     124744.7 (Joules/Mol)
                                   29.81470 (Kcal/Mol)
 Warning -- explicit consideration of   1 degrees of freedom as
           vibrations may cause significant error
 Vibrational temperatures:    857.10  1011.54  1076.85  1227.21  1426.36
          (Kelvin)           1478.35  1545.37  1571.46  1671.17  1850.92
                             1909.49  2126.67  2203.89  4751.21  5299.08

 Zero-point correction=                           0.047513 (Hartree/Particle)
 Thermal correction to Energy=                    0.050954
 Thermal correction to Enthalpy=                  0.051898
 Thermal correction to Gibbs Free Energy=         0.021449
 Sum of electronic and zero-point Energies=           -258.025583
 Sum of electronic and thermal Energies=              -258.022142
 Sum of electronic and thermal Enthalpies=            -258.021198
 Sum of electronic and thermal Free Energies=         -258.051647

                     E (Thermal)             CV                S
                      KCal/Mol        Cal/Mol-Kelvin    Cal/Mol-Kelvin
 Total                   31.974             11.127             64.086
 Electronic               0.000              0.000              0.000
 Translational            0.889              2.981             38.656
 Rotational               0.889              2.981             23.809
 Vibrational             30.197              5.165              1.621
 Vibration     1          0.953              1.041              0.457

 Normal termination of Gaussian 09 at Tue Nov 26 10:26:04 2013.
