 Gaussian 09, Revision D.01,
 Gaussian 09:  EM64L-G09RevD.01 24-Apr-2013

 -----------------------------------
 #HSEh1PBE/6-31G** opt=z-matrix freq
 -----------------------------------

 ------------------------------------------------------------------
 1H-tetrazole CH2N4 casno=288948 state=1 config=1 method=57 basis=3
 ------------------------------------------------------------------
 Symbolic Z-matrix:
 Charge =  0 Multiplicity = 1

 SCF Done:  E(RHSEH1PBE) =  -257.994859593     A.U. after   14 cycles
 SCF Done:  E(RHSEH1PBE) =  -257.997402442     A.U. after   13 cycles
 SCF Done:  E(RHSEH1PBE) =  -257.997461330     A.U. after   11 cycles
 SCF Done:  E(RHSEH1PBE) =  -257.997464576     A.U. after   11 cycles
 SCF Done:  E(RHSEH1PBE) =  -257.997471342     A.U. after   10 cycles
 SCF Done:  E(RHSEH1PBE) =  -257.996937248     A.U. after   12 cycles
 SCF Done:  E(RHSEH1PBE) =  -257.997471372     A.U. after    8 cycles
 SCF Done:  E(RHSEH1PBE) =  -257.997471564     A.U. after    7 cycles
 Optimization completed.
    -- Stationary point found.
 Normal termination of Gaussian 09 at Tue Nov 26 10:26:31 2013.

 ----------------------------------------------------------------------
 #N Geom=AllCheck Guess=TCheck SCRF=Check GenChk RHSEH1PBE/6-31G(d,p) F
 req
 ----------------------------------------------------------------------

 Structure from the checkpoint file:  "/tmp/rdj3/g09-23219/Gau-32139.chk"
 ------------------------------------------------------------------
 1H-tetrazole CH2N4 casno=288948 state=1 config=1 method=57 basis=3
 ------------------------------------------------------------------
 Charge =  0 Multiplicity = 1

                         Standard orientation:
 ---------------------------------------------------------------------
 Center     Atomic      Atomic             Coordinates (Angstroms)
 Number     Number       Type             X           Y           Z
 ---------------------------------------------------------------------
      1          6           0        1.064446    0.232964    0.000000
      2          7           0        0.000000    1.048978    0.000000
      3          7           0       -1.113756    0.303115    0.000000
      4          7           0       -0.719324   -0.920199    0.000000
      5          7           0        0.630084   -1.004812    0.000000
      6          1           0        2.093429    0.557583    0.000000
      7          1           0       -0.059135    2.055051    0.000000
 ---------------------------------------------------------------------

 SCF Done:  E(RHSEH1PBE) =  -257.997471564     A.U. after    1 cycles

 The electronic state is 1-A'.
 Alpha  occ. eigenvalues --  -14.50217 -14.46285 -14.44473 -14.41627 -10.31361
 Alpha  occ. eigenvalues --   -1.16761  -0.96420  -0.90820  -0.68886  -0.67387
 Alpha  occ. eigenvalues --   -0.60220  -0.50376  -0.50177  -0.38147  -0.33299
 Alpha  occ. eigenvalues --   -0.30878  -0.30389  -0.28812
 Alpha virt. eigenvalues --   -0.02766   0.01098   0.05453   0.10559   0.18305
 Alpha virt. eigenvalues --    0.19598   0.28133   0.32111   0.41695   0.51106
 Alpha virt. eigenvalues --    0.52102   0.59340   0.60289   0.64470   0.66669

 Mulliken charges:
               1
     1  C    0.304085
     2  N   -0.368768
     3  N   -0.047405
     4  N   -0.082011
     5  N   -0.316609
     6  H    0.188776
     7  H    0.321932
 Sum of Mulliken charges =   0.00000

 Dipole moment (field-independent basis, Debye):
    X=              2.5125    Y=              4.7806    Z=              0.0000  Tot=              5.4007
 Quadrupole moment (field-independent basis, Debye-Ang):
   XX=            -28.4871   YY=            -25.9267   ZZ=            -28.1409
   XY=              1.7888   XZ=              0.0000   YZ=              0.0000

  Exact polarizability:  37.403   0.979  36.841   0.000   0.000  15.735
 Approx polarizability:  66.745   0.320  70.548   0.000   0.000  24.495

                      1                      2                      3
                     A"                     A"                     A"
 Frequencies --    607.3416               702.1754               752.4164
 Red. masses --      1.8041                 1.9351                 8.0166
 Frc consts  --      0.3921                 0.5621                 2.6740
 IR Inten    --     89.0701                10.7470                 8.9995

                      4                      5                      6
                     A"                     A'                     A'
 Frequencies --    862.4504               994.3664              1027.9019
 Red. masses --      1.3660                 4.2380                 5.3127
 Frc consts  --      0.5987                 2.4689                 3.3072
 IR Inten    --     17.6736                 3.2471                 1.7332

                      7                      8                      9
                     A'                     A'                     A'
 Frequencies --   1094.8035              1111.9248              1166.7164
 Red. masses --      3.0258                 4.8696                 1.9949
 Frc consts  --      2.1368                 3.5472                 1.5999
 IR Inten    --     29.2299                20.8111                11.3505

                     10                     11                     12
                     A'                     A'                     A'
 Frequencies --   1294.8603              1342.6326              1494.0470
 Red. masses --      2.5724                10.2027                 3.4522
 Frc consts  --      2.5412                10.8363                 4.5402
 IR Inten    --      1.4474                17.9110                 8.8926

                     13                     14                     15
                     A'                     A'                     A'
 Frequencies --   1540.6981              3324.0374              3706.1513
 Red. masses --      3.6218                 1.1013                 1.0840
 Frc consts  --      5.0653                 7.1697                 8.7724
 IR Inten    --     17.1314                 1.5971                97.5303

 - Thermochemistry -
 -------------------
 Temperature   298.150 Kelvin.  Pressure   1.00000 Atm.
 Atom     1 has atomic number  6 and mass  12.00000

 Molecular mass:    70.02795 amu.
 Principal axes and moments of inertia in atomic units:
                           1         2         3
     Eigenvalues --   169.88359 172.75529 342.63889
           X            0.83537   0.54969   0.00000
           Y           -0.54969   0.83537   0.00000
           Z            0.00000   0.00000   1.00000
 This molecule is an asymmetric top.
 Rotational symmetry number  1.
 Rotational temperatures (Kelvin)      0.50984     0.50137     0.25278
 Rotational constants (GHZ):          10.62340    10.44681     5.26718
 Zero-point vibrational energy     125742.6 (Joules/Mol)
                                   30.05321 (Kcal/Mol)
 Warning -- explicit consideration of   1 degrees of freedom as
           vibrations may cause significant error
 Vibrational temperatures:    873.83  1010.27  1082.56  1240.87  1430.67
          (Kelvin)           1478.92  1575.18  1599.81  1678.64  1863.01
                             1931.75  2149.60  2216.72  4782.54  5332.32

 Zero-point correction=                           0.047893 (Hartree/Particle)
 Thermal correction to Energy=                    0.051318
 Thermal correction to Enthalpy=                  0.052262
 Thermal correction to Gibbs Free Energy=         0.021828
 Sum of electronic and zero-point Energies=           -257.949579
 Sum of electronic and thermal Energies=              -257.946154
 Sum of electronic and thermal Enthalpies=            -257.945210
 Sum of electronic and thermal Free Energies=         -257.975644

                     E (Thermal)             CV                S
                      KCal/Mol        Cal/Mol-Kelvin    Cal/Mol-Kelvin
 Total                   32.202             11.022             64.054
 Electronic               0.000              0.000              0.000
 Translational            0.889              2.981             38.656
 Rotational               0.889              2.981             23.823
 Vibrational             30.425              5.061              1.575
 Vibration     1          0.966              1.016              0.437

 Normal termination of Gaussian 09 at Tue Nov 26 10:26:43 2013.
