 Gaussian 09, Revision D.01,
 Gaussian 09:  EM64L-G09RevD.01 24-Apr-2013

 -----------------------------------
 #HSEh1PBE/cc-pVDZ opt=z-matrix freq
 -----------------------------------

 ------------------------------------------------------------------
 1H-tetrazole CH2N4 casno=288948 state=1 config=1 method=57 basis=5
 ------------------------------------------------------------------
 Symbolic Z-matrix:
 Charge =  0 Multiplicity = 1

 SCF Done:  E(RHSEH1PBE) =  -258.012426225     A.U. after   14 cycles
 SCF Done:  E(RHSEH1PBE) =  -258.015212242     A.U. after   12 cycles
 SCF Done:  E(RHSEH1PBE) =  -258.015264895     A.U. after   11 cycles
 SCF Done:  E(RHSEH1PBE) =  -258.015024968     A.U. after   11 cycles
 SCF Done:  E(RHSEH1PBE) =  -258.015281076     A.U. after    9 cycles
 SCF Done:  E(RHSEH1PBE) =  -258.015285345     A.U. after    9 cycles
 SCF Done:  E(RHSEH1PBE) =  -258.015285598     A.U. after    7 cycles
 SCF Done:  E(RHSEH1PBE) =  -258.015231491     A.U. after   11 cycles
 SCF Done:  E(RHSEH1PBE) =  -258.015285560     A.U. after    8 cycles
 SCF Done:  E(RHSEH1PBE) =  -258.015285623     A.U. after    6 cycles
 SCF Done:  E(RHSEH1PBE) =  -258.015285586     A.U. after    7 cycles
 SCF Done:  E(RHSEH1PBE) =  -258.015285629     A.U. after    6 cycles
 SCF Done:  E(RHSEH1PBE) =  -258.015285625     A.U. after    6 cycles
 Optimization completed.
    -- Stationary point found.
 Normal termination of Gaussian 09 at Tue Nov 26 10:29:02 2013.

 ----------------------------------------------------------------------
 #N Geom=AllCheck Guess=TCheck SCRF=Check GenChk RHSEH1PBE/CC-pVDZ Freq
 ----------------------------------------------------------------------

 Structure from the checkpoint file:  "/tmp/rdj3/g09-23219/Gau-2320.chk"
 ------------------------------------------------------------------
 1H-tetrazole CH2N4 casno=288948 state=1 config=1 method=57 basis=5
 ------------------------------------------------------------------
 Charge =  0 Multiplicity = 1

                         Standard orientation:
 ---------------------------------------------------------------------
 Center     Atomic      Atomic             Coordinates (Angstroms)
 Number     Number       Type             X           Y           Z
 ---------------------------------------------------------------------
      1          6           0        1.064352    0.230498    0.000000
      2          7           0        0.000000    1.049754    0.000000
      3          7           0       -1.111918    0.305078    0.000000
      4          7           0       -0.720462   -0.918438    0.000000
      5          7           0        0.628049   -1.007829    0.000000
      6          1           0        2.099973    0.556485    0.000000
      7          1           0       -0.055762    2.060569    0.000000
 ---------------------------------------------------------------------

 SCF Done:  E(RHSEH1PBE) =  -258.015285625     A.U. after    1 cycles

 The electronic state is 1-A'.
 Alpha  occ. eigenvalues --  -14.49281 -14.45191 -14.43394 -14.40769 -10.30920
 Alpha  occ. eigenvalues --   -1.16726  -0.96333  -0.90679  -0.68627  -0.67254
 Alpha  occ. eigenvalues --   -0.59929  -0.50289  -0.49887  -0.37940  -0.33173
 Alpha  occ. eigenvalues --   -0.30731  -0.30180  -0.28613
 Alpha virt. eigenvalues --   -0.02631   0.01163   0.03185   0.07645   0.17981
 Alpha virt. eigenvalues --    0.18927   0.25916   0.29141   0.38254   0.43949
 Alpha virt. eigenvalues --    0.45711   0.53565   0.56667   0.58172   0.65486

 Mulliken charges:
               1
     1  C    0.208230
     2  N   -0.058098
     3  N   -0.071383
     4  N   -0.088627
     5  N   -0.197024
     6  H    0.072854
     7  H    0.134048
 Sum of Mulliken charges =   0.00000

 Dipole moment (field-independent basis, Debye):
    X=              2.4226    Y=              4.6821    Z=              0.0000  Tot=              5.2718
 Quadrupole moment (field-independent basis, Debye-Ang):
   XX=            -28.5099   YY=            -25.9161   ZZ=            -27.9547
   XY=              1.7281   XZ=              0.0000   YZ=              0.0000

  Exact polarizability:  37.582   1.085  36.638   0.000   0.000  16.127
 Approx polarizability:  67.204   0.606  70.465   0.000   0.000  25.058

                      1                      2                      3
                     A"                     A"                     A"
 Frequencies --    601.8420               701.8900               755.3640
 Red. masses --      1.7382                 1.9904                 7.8583
 Frc consts  --      0.3709                 0.5777                 2.6418
 IR Inten    --     77.2122                 7.1162                 8.5721

                      4                      5                      6
                     A"                     A'                     A'
 Frequencies --    862.4506               990.7808              1026.6165
 Red. masses --      1.3852                 3.5404                 5.0520
 Frc consts  --      0.6071                 2.0477                 3.1371
 IR Inten    --     17.4654                 3.4246                 2.2934

                      7                      8                      9
                     A'                     A'                     A'
 Frequencies --   1090.5831              1107.5439              1157.0758
 Red. masses --      2.6119                 4.2083                 2.3657
 Frc consts  --      1.8303                 3.0415                 1.8661
 IR Inten    --     33.1895                17.9050                10.7845

                     10                     11                     12
                     A'                     A'                     A'
 Frequencies --   1283.6515              1342.8201              1486.5756
 Red. masses --      2.7237                10.0126                 3.5312
 Frc consts  --      2.6443                10.6374                 4.5977
 IR Inten    --      1.3919                16.1477                 7.8509

                     13                     14                     15
                     A'                     A'                     A'
 Frequencies --   1532.4229              3312.0131              3668.9314
 Red. masses --      4.1490                 1.1021                 1.0849
 Frc consts  --      5.7405                 7.1232                 8.6042
 IR Inten    --     13.9561                 2.2840               100.8488

 - Thermochemistry -
 -------------------
 Temperature   298.150 Kelvin.  Pressure   1.00000 Atm.
 Atom     1 has atomic number  6 and mass  12.00000

 Molecular mass:    70.02795 amu.
 Principal axes and moments of inertia in atomic units:
                           1         2         3
     Eigenvalues --   169.86610 172.91893 342.78503
           X            0.78005   0.62572   0.00000
           Y           -0.62572   0.78005   0.00000
           Z            0.00000   0.00000   1.00000
 This molecule is an asymmetric top.
 Rotational symmetry number  1.
 Rotational temperatures (Kelvin)      0.50989     0.50089     0.25268
 Rotational constants (GHZ):          10.62449    10.43692     5.26494
 Zero-point vibrational energy     125132.7 (Joules/Mol)
                                   29.90744 (Kcal/Mol)
 Warning -- explicit consideration of   1 degrees of freedom as
           vibrations may cause significant error
 Vibrational temperatures:    865.92  1009.86  1086.80  1240.87  1425.51
          (Kelvin)           1477.07  1569.10  1593.51  1664.77  1846.89
                             1932.02  2138.85  2204.81  4765.24  5278.77

 Zero-point correction=                           0.047661 (Hartree/Particle)
 Thermal correction to Energy=                    0.051091
 Thermal correction to Enthalpy=                  0.052035
 Thermal correction to Gibbs Free Energy=         0.021593
 Sum of electronic and zero-point Energies=           -257.967625
 Sum of electronic and thermal Energies=              -257.964195
 Sum of electronic and thermal Enthalpies=            -257.963251
 Sum of electronic and thermal Free Energies=         -257.993693

                     E (Thermal)             CV                S
                      KCal/Mol        Cal/Mol-Kelvin    Cal/Mol-Kelvin
 Total                   32.060             11.058             64.071
 Electronic               0.000              0.000              0.000
 Translational            0.889              2.981             38.656
 Rotational               0.889              2.981             23.825
 Vibrational             30.282              5.097              1.590
 Vibration     1          0.960              1.028              0.447

 Normal termination of Gaussian 09 at Tue Nov 26 10:29:14 2013.
