 Gaussian 09, Revision D.01,
 Gaussian 09:  EM64L-G09RevD.01 24-Apr-2013

 ----------------------------------
 #HSEh1PBE/6-31G* opt=z-matrix freq
 ----------------------------------

 ------------------------------------------------------------------
 1H-tetrazole CH2N4 casno=288948 state=1 config=1 method=57 basis=1
 ------------------------------------------------------------------
 Symbolic Z-matrix:
 Charge =  0 Multiplicity = 1

 SCF Done:  E(RHSEH1PBE) =  -257.989689076     A.U. after   14 cycles
 SCF Done:  E(RHSEH1PBE) =  -257.992288310     A.U. after   13 cycles
 SCF Done:  E(RHSEH1PBE) =  -257.992350027     A.U. after   11 cycles
 SCF Done:  E(RHSEH1PBE) =  -257.992352477     A.U. after   11 cycles
 SCF Done:  E(RHSEH1PBE) =  -257.992358671     A.U. after   10 cycles
 SCF Done:  E(RHSEH1PBE) =  -257.991904595     A.U. after   12 cycles
 SCF Done:  E(RHSEH1PBE) =  -257.992358684     A.U. after    8 cycles
 SCF Done:  E(RHSEH1PBE) =  -257.992358892     A.U. after    7 cycles
 SCF Done:  E(RHSEH1PBE) =  -257.992358608     A.U. after    8 cycles
 SCF Done:  E(RHSEH1PBE) =  -257.992358936     A.U. after    3 cycles
 Optimization completed.
    -- Stationary point found.
 Normal termination of Gaussian 09 at Tue Nov 26 10:21:20 2013.

 ----------------------------------------------------------------------
 #N Geom=AllCheck Guess=TCheck SCRF=Check GenChk RHSEH1PBE/6-31G(d) Fre
 q
 ----------------------------------------------------------------------

 Structure from the checkpoint file:  "/tmp/rdj3/g09-23219/Gau-24429.chk"
 ------------------------------------------------------------------
 1H-tetrazole CH2N4 casno=288948 state=1 config=1 method=57 basis=1
 ------------------------------------------------------------------
 Charge =  0 Multiplicity = 1

                         Standard orientation:
 ---------------------------------------------------------------------
 Center     Atomic      Atomic             Coordinates (Angstroms)
 Number     Number       Type             X           Y           Z
 ---------------------------------------------------------------------
      1          6           0        1.064500    0.233028    0.000000
      2          7           0        0.000000    1.048788    0.000000
      3          7           0       -1.113684    0.303318    0.000000
      4          7           0       -0.719310   -0.920440    0.000000
      5          7           0        0.630289   -1.004812    0.000000
      6          1           0        2.093810    0.557887    0.000000
      7          1           0       -0.061873    2.055973    0.000000
 ---------------------------------------------------------------------

 SCF Done:  E(RHSEH1PBE) =  -257.992358936     A.U. after    1 cycles

 The electronic state is 1-A'.
 Alpha  occ. eigenvalues --  -14.50244 -14.46280 -14.44469 -14.41620 -10.31373
 Alpha  occ. eigenvalues --   -1.16784  -0.96448  -0.90826  -0.68963  -0.67412
 Alpha  occ. eigenvalues --   -0.60315  -0.50373  -0.50267  -0.38170  -0.33279
 Alpha  occ. eigenvalues --   -0.30867  -0.30395  -0.28816
 Alpha virt. eigenvalues --   -0.02693   0.01137   0.05362   0.10543   0.18381
 Alpha virt. eigenvalues --    0.19709   0.28210   0.32095   0.41761   0.51615
 Alpha virt. eigenvalues --    0.52082   0.59449   0.60254   0.64939   0.66853

 Mulliken charges:
               1
     1  C    0.250505
     2  N   -0.441113
     3  N   -0.038027
     4  N   -0.081591
     5  N   -0.308867
     6  H    0.229651
     7  H    0.389442
 Sum of Mulliken charges =   0.00000

 Dipole moment (field-independent basis, Debye):
    X=              2.5123    Y=              4.7866    Z=              0.0000  Tot=              5.4059
 Quadrupole moment (field-independent basis, Debye-Ang):
   XX=            -28.4870   YY=            -25.9170   ZZ=            -28.1739
   XY=              1.7839   XZ=              0.0000   YZ=              0.0000

  Exact polarizability:  37.236   0.950  36.654   0.000   0.000  15.614
 Approx polarizability:  66.427   0.256  70.145   0.000   0.000  24.261

                      1                      2                      3
                     A"                     A"                     A"
 Frequencies --    597.8265               703.0132               752.8019
 Red. masses --      1.7806                 1.9705                 8.1060
 Frc consts  --      0.3749                 0.5738                 2.7066
 IR Inten    --     93.2334                 9.9909                 8.6954

                      4                      5                      6
                     A"                     A'                     A'
 Frequencies --    857.3234               995.3371              1029.5517
 Red. masses --      1.3600                 4.3004                 5.4385
 Frc consts  --      0.5890                 2.5101                 3.3964
 IR Inten    --     18.4229                 3.4146                 1.6677

                      7                      8                      9
                     A'                     A'                     A'
 Frequencies --   1097.7389              1113.4143              1169.0743
 Red. masses --      3.0796                 4.9791                 1.9542
 Frc consts  --      2.1865                 3.6367                 1.5736
 IR Inten    --     28.2826                21.7646                10.9577

                     10                     11                     12
                     A'                     A'                     A'
 Frequencies --   1297.1194              1341.2743              1496.2283
 Red. masses --      2.5748                10.3741                 3.4693
 Frc consts  --      2.5524                10.9960                 4.5760
 IR Inten    --      1.5339                17.6128                 8.8221

                     13                     14                     15
                     A'                     A'                     A'
 Frequencies --   1542.7077              3334.0799              3693.2680
 Red. masses --      3.4850                 1.1013                 1.0839
 Frc consts  --      4.8867                 7.2126                 8.7109
 IR Inten    --     17.8645                 1.1557                90.5833

 - Thermochemistry -
 -------------------
 Temperature   298.150 Kelvin.  Pressure   1.00000 Atm.
 Atom     1 has atomic number  6 and mass  12.00000

 Molecular mass:    70.02795 amu.
 Principal axes and moments of inertia in atomic units:
                           1         2         3
     Eigenvalues --   169.88112 172.79812 342.67924
           X            0.83272   0.55369   0.00000
           Y           -0.55369   0.83272   0.00000
           Z            0.00000   0.00000   1.00000
 This molecule is an asymmetric top.
 Rotational symmetry number  1.
 Rotational temperatures (Kelvin)      0.50985     0.50124     0.25275
 Rotational constants (GHZ):          10.62355    10.44422     5.26656
 Zero-point vibrational energy     125732.1 (Joules/Mol)
                                   30.05068 (Kcal/Mol)
 Warning -- explicit consideration of   1 degrees of freedom as
           vibrations may cause significant error
 Vibrational temperatures:    860.14  1011.48  1083.11  1233.50  1432.07
          (Kelvin)           1481.29  1579.40  1601.95  1682.04  1866.26
                             1929.79  2152.74  2219.61  4796.99  5313.78

 Zero-point correction=                           0.047889 (Hartree/Particle)
 Thermal correction to Energy=                    0.051319
 Thermal correction to Enthalpy=                  0.052263
 Thermal correction to Gibbs Free Energy=         0.021821
 Sum of electronic and zero-point Energies=           -257.944470
 Sum of electronic and thermal Energies=              -257.941040
 Sum of electronic and thermal Enthalpies=            -257.940096
 Sum of electronic and thermal Free Energies=         -257.970538

                     E (Thermal)             CV                S
                      KCal/Mol        Cal/Mol-Kelvin    Cal/Mol-Kelvin
 Total                   32.203             11.038             64.070
 Electronic               0.000              0.000              0.000
 Translational            0.889              2.981             38.656
 Rotational               0.889              2.981             23.824
 Vibrational             30.425              5.076              1.590
 Vibration     1          0.956              1.036              0.453

 Normal termination of Gaussian 09 at Tue Nov 26 10:21:30 2013.
