 Gaussian 09, Revision D.01,
 Gaussian 09:  EM64L-G09RevD.01 24-Apr-2013

 ---------------------------------
 #HSEh1PBE/3-21G opt=z-matrix freq
 ---------------------------------

 ------------------------------------------------------------------
 1H-tetrazole CH2N4 casno=288948 state=1 config=1 method=57 basis=2
 ------------------------------------------------------------------
 Symbolic Z-matrix:
 Charge =  0 Multiplicity = 1

 SCF Done:  E(RHSEH1PBE) =  -256.507000102     A.U. after   15 cycles
 SCF Done:  E(RHSEH1PBE) =  -256.523137464     A.U. after   14 cycles
 SCF Done:  E(RHSEH1PBE) =  -256.524098092     A.U. after   13 cycles
 SCF Done:  E(RHSEH1PBE) =  -256.521994114     A.U. after   13 cycles
 SCF Done:  E(RHSEH1PBE) =  -256.524377227     A.U. after   11 cycles
 SCF Done:  E(RHSEH1PBE) =  -256.524433001     A.U. after   10 cycles
 SCF Done:  E(RHSEH1PBE) =  -256.524222747     A.U. after   12 cycles
 SCF Done:  E(RHSEH1PBE) =  -256.524435416     A.U. after    9 cycles
 SCF Done:  E(RHSEH1PBE) =  -256.524446885     A.U. after   11 cycles
 SCF Done:  E(RHSEH1PBE) =  -256.524372702     A.U. after   12 cycles
 SCF Done:  E(RHSEH1PBE) =  -256.524357825     A.U. after   12 cycles
 SCF Done:  E(RHSEH1PBE) =  -256.524453692     A.U. after    9 cycles
 SCF Done:  E(RHSEH1PBE) =  -256.524407982     A.U. after   12 cycles
 SCF Done:  E(RHSEH1PBE) =  -256.524453702     A.U. after    9 cycles
 SCF Done:  E(RHSEH1PBE) =  -256.523915569     A.U. after   13 cycles
 SCF Done:  E(RHSEH1PBE) =  -256.524453718     A.U. after    9 cycles
 SCF Done:  E(RHSEH1PBE) =  -256.524434648     A.U. after   11 cycles
 SCF Done:  E(RHSEH1PBE) =  -256.524453551     A.U. after    9 cycles
 SCF Done:  E(RHSEH1PBE) =  -256.524453973     A.U. after    7 cycles
 Optimization completed.
    -- Stationary point found.
 Normal termination of Gaussian 09 at Tue Nov 26 10:23:56 2013.

 --------------------------------------------------------------------
 #N Geom=AllCheck Guess=TCheck SCRF=Check GenChk RHSEH1PBE/3-21G Freq
 --------------------------------------------------------------------

 Structure from the checkpoint file:  "/tmp/rdj3/g09-23219/Gau-28429.chk"
 ------------------------------------------------------------------
 1H-tetrazole CH2N4 casno=288948 state=1 config=1 method=57 basis=2
 ------------------------------------------------------------------
 Charge =  0 Multiplicity = 1

                         Standard orientation:
 ---------------------------------------------------------------------
 Center     Atomic      Atomic             Coordinates (Angstroms)
 Number     Number       Type             X           Y           Z
 ---------------------------------------------------------------------
      1          6           0        1.075870    0.257646    0.000000
      2          7           0        0.000000    1.078532    0.000000
      3          7           0       -1.162401    0.290629    0.000000
      4          7           0       -0.738964   -0.962734    0.000000
      5          7           0        0.689704   -1.010327    0.000000
      6          1           0        2.095688    0.594318    0.000000
      7          1           0       -0.069280    2.087110    0.000000
 ---------------------------------------------------------------------

 SCF Done:  E(RHSEH1PBE) =  -256.524453973     A.U. after    1 cycles

 The electronic state is 1-A'.
 Alpha  occ. eigenvalues --  -14.42941 -14.40154 -14.38281 -14.35054 -10.26880
 Alpha  occ. eigenvalues --   -1.16662  -0.96160  -0.92740  -0.68658  -0.67742
 Alpha  occ. eigenvalues --   -0.60926  -0.50065  -0.49450  -0.37138  -0.32913
 Alpha  occ. eigenvalues --   -0.31470  -0.30015  -0.28982
 Alpha virt. eigenvalues --   -0.04128   0.00005   0.07199   0.09564   0.16155
 Alpha virt. eigenvalues --    0.19319   0.25439   0.34779   0.38804   0.66913
 Alpha virt. eigenvalues --    0.69047   0.80300   0.83039   0.92025   1.01422

 Mulliken charges:
               1
     1  C    0.329863
     2  N   -0.560416
     3  N   -0.029997
     4  N   -0.079880
     5  N   -0.346335
     6  H    0.298524
     7  H    0.388241
 Sum of Mulliken charges =   0.00000

 Dipole moment (field-independent basis, Debye):
    X=              2.5182    Y=              4.9761    Z=              0.0000  Tot=              5.5770
 Quadrupole moment (field-independent basis, Debye-Ang):
   XX=            -29.0351   YY=            -26.4396   ZZ=            -28.6292
   XY=              1.9998   XZ=              0.0000   YZ=              0.0000

  Exact polarizability:  34.593   1.240  34.186   0.000   0.000  11.327
 Approx polarizability:  67.112  -0.563  74.584   0.000   0.000  14.926

                      1                      2                      3
                     A"                     A"                     A"
 Frequencies --    656.7930               695.0627               700.4225
 Red. masses --      3.8726                 1.7218                 2.6245
 Frc consts  --      0.9843                 0.4901                 0.7586
 IR Inten    --     56.1111                47.9491                64.0872

                      4                      5                      6
                     A'                     A'                     A"
 Frequencies --    813.5982               896.1429               929.6127
 Red. masses --      9.7320                 6.2050                 1.3994
 Frc consts  --      3.7955                 2.9359                 0.7125
 IR Inten    --      9.2728                15.4847                16.0760

                      7                      8                      9
                     A'                     A'                     A'
 Frequencies --    998.0565              1025.4229              1102.8459
 Red. masses --      4.7359                 6.2214                 6.1813
 Frc consts  --      2.7795                 3.8543                 4.4296
 IR Inten    --      8.9223                 9.0640                 3.5878

                     10                     11                     12
                     A'                     A'                     A'
 Frequencies --   1162.7919              1230.9934              1385.6787
 Red. masses --      2.0361                 2.2600                 2.9691
 Frc consts  --      1.6220                 2.0178                 3.3589
 IR Inten    --     13.5774                 6.0825                 4.8875

                     13                     14                     15
                     A'                     A'                     A'
 Frequencies --   1454.4579              3347.6102              3633.6853
 Red. masses --      2.2273                 1.1004                 1.0847
 Frc consts  --      2.7760                 7.2658                 8.4380
 IR Inten    --     42.1529                 3.3582               115.6768

 - Thermochemistry -
 -------------------
 Temperature   298.150 Kelvin.  Pressure   1.00000 Atm.
 Atom     1 has atomic number  6 and mass  12.00000

 Molecular mass:    70.02795 amu.
 Principal axes and moments of inertia in atomic units:
                           1         2         3
     Eigenvalues --   179.14133 183.95444 363.09577
           X            0.99218   0.12481   0.00000
           Y           -0.12481   0.99218   0.00000
           Z            0.00000   0.00000   1.00000
 This molecule is an asymmetric top.
 Rotational symmetry number  1.
 Rotational temperatures (Kelvin)      0.48349     0.47084     0.23854
 Rotational constants (GHZ):          10.07440     9.81081     4.97043
 Zero-point vibrational energy     119825.0 (Joules/Mol)
                                   28.63886 (Kcal/Mol)
 Vibrational temperatures:    944.98  1000.04  1007.75  1170.58  1289.35
          (Kelvin)           1337.50  1435.98  1475.35  1586.75  1673.00
                             1771.12  1993.68  2092.64  4816.46  5228.06

 Zero-point correction=                           0.045639 (Hartree/Particle)
 Thermal correction to Energy=                    0.049151
 Thermal correction to Enthalpy=                  0.050095
 Thermal correction to Gibbs Free Energy=         0.019472
 Sum of electronic and zero-point Energies=           -256.478815
 Sum of electronic and thermal Energies=              -256.475303
 Sum of electronic and thermal Enthalpies=            -256.474359
 Sum of electronic and thermal Free Energies=         -256.504982

                     E (Thermal)             CV                S
                      KCal/Mol        Cal/Mol-Kelvin    Cal/Mol-Kelvin
 Total                   30.843             11.760             64.452
 Electronic               0.000              0.000              0.000
 Translational            0.889              2.981             38.656
 Rotational               0.889              2.981             23.996
 Vibrational             29.065              5.798              1.800

 Optimization completed.
    -- Stationary point found.
 Normal termination of Gaussian 09 at Tue Nov 26 10:24:00 2013.
