 Gaussian 09, Revision D.01,
 Gaussian 09:  EM64L-G09RevD.01 24-Apr-2013

 ---------------------------------------
 #HSEh1PBE/aug-cc-pVDZ opt=z-matrix freq
 ---------------------------------------

 -------------------------------------------------------------------
 1H-tetrazole CH2N4 casno=288948 state=1 config=1 method=57 basis=17
 -------------------------------------------------------------------
 Symbolic Z-matrix:
 Charge =  0 Multiplicity = 1

 SCF Done:  E(RHSEH1PBE) =  -258.032467239     A.U. after   12 cycles
 SCF Done:  E(RHSEH1PBE) =  -258.035366770     A.U. after   10 cycles
 SCF Done:  E(RHSEH1PBE) =  -258.035425622     A.U. after   10 cycles
 SCF Done:  E(RHSEH1PBE) =  -258.035262543     A.U. after   11 cycles
 SCF Done:  E(RHSEH1PBE) =  -258.035443998     A.U. after    9 cycles
 SCF Done:  E(RHSEH1PBE) =  -258.035437585     A.U. after    9 cycles
 SCF Done:  E(RHSEH1PBE) =  -258.035449122     A.U. after    7 cycles
 SCF Done:  E(RHSEH1PBE) =  -258.035418979     A.U. after   10 cycles
 SCF Done:  E(RHSEH1PBE) =  -258.035450815     A.U. after    7 cycles
 SCF Done:  E(RHSEH1PBE) =  -258.035452981     A.U. after    8 cycles
 SCF Done:  E(RHSEH1PBE) =  -258.035447729     A.U. after    9 cycles
 SCF Done:  E(RHSEH1PBE) =  -258.035453273     A.U. after    6 cycles
 SCF Done:  E(RHSEH1PBE) =  -258.035453264     A.U. after    8 cycles
 SCF Done:  E(RHSEH1PBE) =  -258.035453421     A.U. after    8 cycles
 SCF Done:  E(RHSEH1PBE) =  -258.035453328     A.U. after    8 cycles
 SCF Done:  E(RHSEH1PBE) =  -258.035453488     A.U. after    7 cycles
 SCF Done:  E(RHSEH1PBE) =  -258.035453406     A.U. after    7 cycles
 Optimization completed.
    -- Stationary point found.
 Normal termination of Gaussian 09 at Tue Nov 26 09:10:34 2013.

 ----------------------------------------------------------------------
 #N Geom=AllCheck Guess=TCheck SCRF=Check GenChk RHSEH1PBE/Aug-CC-pVDZ
 Freq
 ----------------------------------------------------------------------

 Structure from the checkpoint file:  "/tmp/rdj3/g09-23219/Gau-19721.chk"
 -------------------------------------------------------------------
 1H-tetrazole CH2N4 casno=288948 state=1 config=1 method=57 basis=17
 -------------------------------------------------------------------
 Charge =  0 Multiplicity = 1

                         Standard orientation:
 ---------------------------------------------------------------------
 Center     Atomic      Atomic             Coordinates (Angstroms)
 Number     Number       Type             X           Y           Z
 ---------------------------------------------------------------------
      1          6           0        1.065374    0.232734    0.000000
      2          7           0        0.000000    1.049510    0.000000
      3          7           0       -1.112706    0.305246    0.000000
      4          7           0       -0.720867   -0.920887    0.000000
      5          7           0        0.628799   -1.006951    0.000000
      6          1           0        2.098732    0.557438    0.000000
      7          1           0       -0.057551    2.057724    0.000000
 ---------------------------------------------------------------------

 SCF Done:  E(RHSEH1PBE) =  -258.035453406     A.U. after    1 cycles

 The electronic state is 1-A'.
 Alpha  occ. eigenvalues --  -14.50221 -14.46678 -14.45056 -14.42215 -10.31664
 Alpha  occ. eigenvalues --   -1.17558  -0.97245  -0.91573  -0.69573  -0.68196
 Alpha  occ. eigenvalues --   -0.60819  -0.51128  -0.50773  -0.39086  -0.34113
 Alpha  occ. eigenvalues --   -0.31617  -0.31446  -0.29956
 Alpha virt. eigenvalues --   -0.04058  -0.02912  -0.00773   0.00449   0.03316
 Alpha virt. eigenvalues --    0.04166   0.05473   0.06953   0.08400   0.08829
 Alpha virt. eigenvalues --    0.10240   0.10812   0.12144   0.13359   0.14382

 Mulliken charges:
               1
     1  C    0.882432
     2  N    0.007884
     3  N   -0.116180
     4  N   -0.260992
     5  N   -0.299168
     6  H   -0.164499
     7  H   -0.049477
 Sum of Mulliken charges =   0.00000

 Dipole moment (field-independent basis, Debye):
    X=              2.5358    Y=              4.7587    Z=              0.0000  Tot=              5.3922
 Quadrupole moment (field-independent basis, Debye-Ang):
   XX=            -29.0880   YY=            -26.5784   ZZ=            -28.7984
   XY=              1.8697   XZ=              0.0000   YZ=              0.0000

  Exact polarizability:  45.381   0.529  44.787   0.000   0.000  26.169
 Approx polarizability:  76.113   0.405  79.448   0.000   0.000  39.314

                      1                      2                      3
                     A"                     A"                     A"
 Frequencies --    611.6977               699.7563               751.9154
 Red. masses --      1.7578                 1.9067                 8.5622
 Frc consts  --      0.3875                 0.5501                 2.8522
 IR Inten    --     78.4178                 8.3904                 7.4622

                      4                      5                      6
                     A"                     A'                     A'
 Frequencies --    861.9827               989.3912              1024.3581
 Red. masses --      1.3941                 3.7962                 5.5303
 Frc consts  --      0.6103                 2.1894                 3.4191
 IR Inten    --     18.6378                 2.7255                 1.7446

                      7                      8                      9
                     A'                     A'                     A'
 Frequencies --   1095.6290              1105.8050              1155.9309
 Red. masses --      2.6746                 4.4421                 2.2198
 Frc consts  --      1.8916                 3.2003                 1.7475
 IR Inten    --     29.8344                19.9935                 9.0005

                     10                     11                     12
                     A'                     A'                     A'
 Frequencies --   1285.4906              1334.0115              1483.9315
 Red. masses --      2.7149                10.4852                 3.5839
 Frc consts  --      2.6432                10.9938                 4.6498
 IR Inten    --      1.0739                13.2173                 8.3702

                     13                     14                     15
                     A'                     A'                     A'
 Frequencies --   1528.0909              3308.4509              3678.0881
 Red. masses --      3.5924                 1.1023                 1.0845
 Frc consts  --      4.9424                 7.1087                 8.6440
 IR Inten    --     15.7914                 2.1077                96.2238

 - Thermochemistry -
 -------------------
 Temperature   298.150 Kelvin.  Pressure   1.00000 Atm.
 Atom     1 has atomic number  6 and mass  12.00000

 Molecular mass:    70.02795 amu.
 Principal axes and moments of inertia in atomic units:
                           1         2         3
     Eigenvalues --   170.20723 172.94054 343.14777
           X            0.80161   0.59784   0.00000
           Y           -0.59784   0.80161   0.00000
           Z            0.00000   0.00000   1.00000
 This molecule is an asymmetric top.
 Rotational symmetry number  1.
 Rotational temperatures (Kelvin)      0.50887     0.50083     0.25241
 Rotational constants (GHZ):          10.60320    10.43562     5.25937
 Zero-point vibrational energy     125096.7 (Joules/Mol)
                                   29.89882 (Kcal/Mol)
 Warning -- explicit consideration of   1 degrees of freedom as
           vibrations may cause significant error
 Vibrational temperatures:    880.10  1006.79  1081.84  1240.20  1423.51
          (Kelvin)           1473.82  1576.36  1591.00  1663.12  1849.53
                             1919.34  2135.04  2198.58  4760.12  5291.94

 Zero-point correction=                           0.047647 (Hartree/Particle)
 Thermal correction to Energy=                    0.051074
 Thermal correction to Enthalpy=                  0.052019
 Thermal correction to Gibbs Free Energy=         0.021579
 Sum of electronic and zero-point Energies=           -257.987807
 Sum of electronic and thermal Energies=              -257.984379
 Sum of electronic and thermal Enthalpies=            -257.983435
 Sum of electronic and thermal Free Energies=         -258.013874

                     E (Thermal)             CV                S
                      KCal/Mol        Cal/Mol-Kelvin    Cal/Mol-Kelvin
 Total                   32.050             11.055             64.065
 Electronic               0.000              0.000              0.000
 Translational            0.889              2.981             38.656
 Rotational               0.889              2.981             23.828
 Vibrational             30.272              5.093              1.581
 Vibration     1          0.971              1.007              0.430

 Normal termination of Gaussian 09 at Tue Nov 26 09:11:15 2013.
