 Gaussian 09, Revision D.01,
 Gaussian 09:  EM64L-G09RevD.01 24-Apr-2013

 ---------------------------
 #HSEh1PBE/6-31+G** opt freq
 ---------------------------

 ------------------------------------------------------------------
 1H-tetrazole CH2N4 casno=288948 state=1 config=1 method=57 basis=4
 ------------------------------------------------------------------
 Symbolic Z-matrix:
 Charge =  0 Multiplicity = 1

 SCF Done:  E(RHSEH1PBE) =  -258.004834732     A.U. after   12 cycles
 SCF Done:  E(RHSEH1PBE) =  -258.007375183     A.U. after   11 cycles
 SCF Done:  E(RHSEH1PBE) =  -258.007429203     A.U. after   10 cycles
 SCF Done:  E(RHSEH1PBE) =  -258.007447592     A.U. after   10 cycles
 SCF Done:  E(RHSEH1PBE) =  -258.007452265     A.U. after    9 cycles
 Optimization completed.
    -- Stationary point found.
 Normal termination of Gaussian 09 at Mon Dec 16 15:50:02 2013.

 ----------------------------------------------------------------------
 #N Geom=AllCheck Guess=TCheck SCRF=Check GenChk RHSEH1PBE/6-31+G(d,p)
 Freq
 ----------------------------------------------------------------------

 Structure from the checkpoint file:  "/tmp/rdj3/g09-18029/Gau-11136.chk"
 ------------------------------------------------------------------
 1H-tetrazole CH2N4 casno=288948 state=1 config=1 method=57 basis=4
 ------------------------------------------------------------------
 Charge =  0 Multiplicity = 1

                         Standard orientation:
 ---------------------------------------------------------------------
 Center     Atomic      Atomic             Coordinates (Angstroms)
 Number     Number       Type             X           Y           Z
 ---------------------------------------------------------------------
      1          6           0        1.064732    0.233602    0.000000
      2          7           0        0.000000    1.049556    0.000000
      3          7           0       -1.112967    0.302813    0.000000
      4          7           0       -0.719559   -0.921007    0.000000
      5          7           0        0.629282   -1.004751    0.000000
      6          1           0        2.094458    0.555860    0.000000
      7          1           0       -0.060142    2.056258    0.000000
 ---------------------------------------------------------------------

 SCF Done:  E(RHSEH1PBE) =  -258.007452265     A.U. after    1 cycles

 The electronic state is 1-A'.
 Alpha  occ. eigenvalues --  -14.51218 -14.47508 -14.45740 -14.42918 -10.32268
 Alpha  occ. eigenvalues --   -1.17933  -0.97518  -0.91895  -0.69877  -0.68423
 Alpha  occ. eigenvalues --   -0.61155  -0.51369  -0.51107  -0.39231  -0.34355
 Alpha  occ. eigenvalues --   -0.31889  -0.31533  -0.29979
 Alpha virt. eigenvalues --   -0.04139  -0.01834  -0.00616   0.01948   0.03924
 Alpha virt. eigenvalues --    0.04972   0.06883   0.08750   0.10675   0.12472
 Alpha virt. eigenvalues --    0.13883   0.14802   0.16340   0.17777   0.17993

 Mulliken charges:
               1
     1  C    0.017307
     2  N   -0.292740
     3  N   -0.015161
     4  N   -0.013036
     5  N   -0.250553
     6  H    0.202303
     7  H    0.351878
 Sum of Mulliken charges =   0.00000

 Dipole moment (field-independent basis, Debye):
    X=              2.6378    Y=              4.9237    Z=              0.0000  Tot=              5.5858
 Quadrupole moment (field-independent basis, Debye-Ang):
   XX=            -29.3314   YY=            -26.7343   ZZ=            -28.8179
   XY=              1.9258   XZ=              0.0000   YZ=              0.0000

  Exact polarizability:  43.226   0.387  42.809   0.000   0.000  23.755
 Approx polarizability:  71.759  -0.062  75.708   0.000   0.000  34.665

                      1                      2                      3
                     A"                     A"                     A"
 Frequencies --    601.4773               697.8948               746.9979
 Red. masses --      1.8647                 1.8761                 8.2612
 Frc consts  --      0.3975                 0.5384                 2.7160
 IR Inten    --     85.0962                12.2242                 8.5468

                      4                      5                      6
                     A"                     A'                     A'
 Frequencies --    859.2577               992.0791              1025.9763
 Red. masses --      1.3560                 4.2981                 5.6405
 Frc consts  --      0.5899                 2.4924                 3.4982
 IR Inten    --     22.4239                 3.1200                 1.4704

                      7                      8                      9
                     A'                     A'                     A'
 Frequencies --   1094.5709              1110.1173              1163.1686
 Red. masses --      3.0332                 4.8575                 1.9612
 Frc consts  --      2.1411                 3.5270                 1.5633
 IR Inten    --     26.6602                24.7471                10.9186

                     10                     11                     12
                     A'                     A'                     A'
 Frequencies --   1293.1134              1339.0894              1489.8040
 Red. masses --      2.5600                10.2578                 3.4536
 Frc consts  --      2.5221                10.8374                 4.5162
 IR Inten    --      1.3242                18.3569                 9.5227

                     13                     14                     15
                     A'                     A'                     A'
 Frequencies --   1537.1639              3325.3267              3701.3176
 Red. masses --      3.5564                 1.1016                 1.0843
 Frc consts  --      4.9510                 7.1770                 8.7519
 IR Inten    --     17.4630                 2.6700               106.7029

 - Thermochemistry -
 -------------------
 Temperature   298.150 Kelvin.  Pressure   1.00000 Atm.
 Atom     1 has atomic number  6 and mass  12.00000

 Molecular mass:    70.02795 amu.
 Principal axes and moments of inertia in atomic units:
                           1         2         3
     Eigenvalues --   170.07283 172.63041 342.70324
           X            0.82375   0.56696   0.00000
           Y           -0.56696   0.82375   0.00000
           Z            0.00000   0.00000   1.00000
 This molecule is an asymmetric top.
 Rotational symmetry number  1.
 Rotational temperatures (Kelvin)      0.50927     0.50173     0.25274
 Rotational constants (GHZ):          10.61158    10.45436     5.26619
 Zero-point vibrational energy     125472.4 (Joules/Mol)
                                   29.98863 (Kcal/Mol)
 Warning -- explicit consideration of   1 degrees of freedom as
           vibrations may cause significant error
 Vibrational temperatures:    865.39  1004.11  1074.76  1236.28  1427.38
          (Kelvin)           1476.15  1574.84  1597.21  1673.54  1860.50
                             1926.65  2143.49  2211.63  4784.40  5325.36

 Zero-point correction=                           0.047790 (Hartree/Particle)
 Thermal correction to Energy=                    0.051224
 Thermal correction to Enthalpy=                  0.052168
 Thermal correction to Gibbs Free Energy=         0.021721
 Sum of electronic and zero-point Energies=           -257.959662
 Sum of electronic and thermal Energies=              -257.956229
 Sum of electronic and thermal Enthalpies=            -257.955284
 Sum of electronic and thermal Free Energies=         -257.985731

                     E (Thermal)             CV                S
                      KCal/Mol        Cal/Mol-Kelvin    Cal/Mol-Kelvin
 Total                   32.143             11.070             64.081
 Electronic               0.000              0.000              0.000
 Translational            0.889              2.981             38.656
 Rotational               0.889              2.981             23.824
 Vibrational             30.366              5.109              1.601
 Vibration     1          0.960              1.029              0.447

 Optimization completed.
    -- Stationary point found.
 Normal termination of Gaussian 09 at Mon Dec 16 15:50:15 2013.
