 Gaussian 09, Revision D.01,
 Gaussian 09:  EM64L-G09RevD.01 24-Apr-2013

 ---------------------
 #M062X/6-31G opt freq
 ---------------------

 ------------------------------------------------------------------
 1H-tetrazole CH2N4 casno=288948 state=1 config=1 method=58 basis=9
 ------------------------------------------------------------------
 Symbolic Z-matrix:
 Charge =  0 Multiplicity = 1

 SCF Done:  E(RM062X) =  -258.013865532     A.U. after   15 cycles
 SCF Done:  E(RM062X) =  -258.023633256     A.U. after   16 cycles
 SCF Done:  E(RM062X) =  -258.023767781     A.U. after   15 cycles
 SCF Done:  E(RM062X) =  -258.024020868     A.U. after   10 cycles
 SCF Done:  E(RM062X) =  -258.024026524     A.U. after   10 cycles
 SCF Done:  E(RM062X) =  -258.024028990     A.U. after    8 cycles
 Optimization completed.
    -- Stationary point found.
 Normal termination of Gaussian 09 at Mon Dec 16 15:53:55 2013.

 -----------------------------------------------------------------
 #N Geom=AllCheck Guess=TCheck SCRF=Check GenChk RM062X/6-31G Freq
 -----------------------------------------------------------------

 Structure from the checkpoint file:  "/tmp/rdj3/g09-18029/Gau-16272.chk"
 ------------------------------------------------------------------
 1H-tetrazole CH2N4 casno=288948 state=1 config=1 method=58 basis=9
 ------------------------------------------------------------------
 Charge =  0 Multiplicity = 1

                         Standard orientation:
 ---------------------------------------------------------------------
 Center     Atomic      Atomic             Coordinates (Angstroms)
 Number     Number       Type             X           Y           Z
 ---------------------------------------------------------------------
      1          6           0        1.080646    0.248320    0.000000
      2          7           0        0.000000    1.065064    0.000000
      3          7           0       -1.138497    0.297558    0.000000
      4          7           0       -0.735022   -0.943723    0.000000
      5          7           0        0.656165   -1.008486    0.000000
      6          1           0        2.104748    0.568749    0.000000
      7          1           0       -0.067145    2.068440    0.000000
 ---------------------------------------------------------------------

 SCF Done:  E(RM062X) =  -258.024028990     A.U. after    1 cycles

 The electronic state is 1-A'.
 Alpha  occ. eigenvalues --  -14.88854 -14.87000 -14.84919 -14.81766 -10.66272
 Alpha  occ. eigenvalues --   -1.29858  -1.07825  -1.03376  -0.78305  -0.76818
 Alpha  occ. eigenvalues --   -0.69339  -0.58800  -0.58275  -0.45800  -0.40461
 Alpha  occ. eigenvalues --   -0.38398  -0.38017  -0.37056
 Alpha virt. eigenvalues --    0.00582   0.04807   0.09470   0.14357   0.20750
 Alpha virt. eigenvalues --    0.22592   0.29809   0.34605   0.44302   0.56310
 Alpha virt. eigenvalues --    0.58994   0.66392   0.69701   0.71735   0.72482

 Mulliken charges:
               1
     1  C    0.295046
     2  N   -0.597677
     3  N    0.027127
     4  N   -0.087989
     5  N   -0.294545
     6  H    0.254017
     7  H    0.404021
 Sum of Mulliken charges =   0.00000

 Dipole moment (field-independent basis, Debye):
    X=              2.7764    Y=              5.2270    Z=              0.0000  Tot=              5.9186
 Quadrupole moment (field-independent basis, Debye-Ang):
   XX=            -29.8264   YY=            -27.4563   ZZ=            -28.8328
   XY=              2.0715   XZ=              0.0000   YZ=              0.0000

  Exact polarizability:  36.575   1.004  36.249   0.000   0.000  13.718
 Approx polarizability:  52.157   0.136  56.270   0.000   0.000  15.170

                      1                      2                      3
                     A"                     A"                     A"
 Frequencies --    688.1415               735.2067               753.3101
 Red. masses --      3.7336                12.0204                 1.1460
 Frc consts  --      1.0417                 3.8281                 0.3832
 IR Inten    --      7.1597                 2.0460               177.6923

                      4                      5                      6
                     A"                     A'                     A'
 Frequencies --    915.8891               923.5276              1005.2938
 Red. masses --      1.4120                 7.8092                 4.8952
 Frc consts  --      0.6979                 3.9242                 2.9148
 IR Inten    --     11.5825                 6.3533                18.7859

                      7                      8                      9
                     A'                     A'                     A'
 Frequencies --   1031.3042              1061.0541              1167.4754
 Red. masses --      7.2107                 4.4276                 1.9060
 Frc consts  --      4.5186                 2.9370                 1.5307
 IR Inten    --      5.8300                16.9409                14.2378

                     10                     11                     12
                     A'                     A'                     A'
 Frequencies --   1254.0712              1283.8622              1448.0490
 Red. masses --      3.4263                 3.6368                 3.2054
 Frc consts  --      3.1748                 3.5319                 3.9600
 IR Inten    --     13.5543                 1.6072                 5.6228

                     13                     14                     15
                     A'                     A'                     A'
 Frequencies --   1524.0868              3384.1425              3742.0281
 Red. masses --      2.3891                 1.1039                 1.0853
 Frc consts  --      3.2697                 7.4483                 8.9537
 IR Inten    --     42.7120                 8.5128               144.4298

 - Thermochemistry -
 -------------------
 Temperature   298.150 Kelvin.  Pressure   1.00000 Atm.
 Atom     1 has atomic number  6 and mass  12.00000

 Molecular mass:    70.02795 amu.
 Principal axes and moments of inertia in atomic units:
                           1         2         3
     Eigenvalues --   175.37665 179.18125 354.55790
           X            0.99672   0.08087   0.00000
           Y           -0.08087   0.99672   0.00000
           Z            0.00000   0.00000   1.00000
 This molecule is an asymmetric top.
 Rotational symmetry number  1.
 Rotational temperatures (Kelvin)      0.49387     0.48339     0.24429
 Rotational constants (GHZ):          10.29066    10.07215     5.09012
 Zero-point vibrational energy     125114.1 (Joules/Mol)
                                   29.90298 (Kcal/Mol)
 Vibrational temperatures:    990.08  1057.80  1083.84  1317.76  1328.75
          (Kelvin)           1446.39  1483.81  1526.62  1679.73  1804.33
                             1847.19  2083.42  2192.82  4869.02  5383.94

 Zero-point correction=                           0.047653 (Hartree/Particle)
 Thermal correction to Energy=                    0.051049
 Thermal correction to Enthalpy=                  0.051993
 Thermal correction to Gibbs Free Energy=         0.021557
 Sum of electronic and zero-point Energies=           -257.976376
 Sum of electronic and thermal Energies=              -257.972980
 Sum of electronic and thermal Enthalpies=            -257.972036
 Sum of electronic and thermal Free Energies=         -258.002472

                     E (Thermal)             CV                S
                      KCal/Mol        Cal/Mol-Kelvin    Cal/Mol-Kelvin
 Total                   32.034             11.000             64.058
 Electronic               0.000              0.000              0.000
 Translational            0.889              2.981             38.656
 Rotational               0.889              2.981             23.925
 Vibrational             30.256              5.038              1.476

 Optimization completed.
    -- Stationary point found.
 Normal termination of Gaussian 09 at Mon Dec 16 15:54:00 2013.
