 Gaussian 09, Revision D.01,
 Gaussian 09:  EM64L-G09RevD.01 24-Apr-2013

 -----------------------
 #M062X/cc-pVDZ opt freq
 -----------------------

 ------------------------------------------------------------------
 1H-tetrazole CH2N4 casno=288948 state=1 config=1 method=58 basis=5
 ------------------------------------------------------------------
 Symbolic Z-matrix:
 Charge =  0 Multiplicity = 1

 SCF Done:  E(RM062X) =  -258.182105433     A.U. after   16 cycles
 SCF Done:  E(RM062X) =  -258.184767042     A.U. after   14 cycles
 SCF Done:  E(RM062X) =  -258.184800909     A.U. after   10 cycles
 SCF Done:  E(RM062X) =  -258.184812686     A.U. after    9 cycles
 SCF Done:  E(RM062X) =  -258.184814018     A.U. after    9 cycles
 Optimization completed.
    -- Stationary point found.
 Normal termination of Gaussian 09 at Mon Dec 16 15:52:41 2013.

 -------------------------------------------------------------------
 #N Geom=AllCheck Guess=TCheck SCRF=Check GenChk RM062X/CC-pVDZ Freq
 -------------------------------------------------------------------

 Structure from the checkpoint file:  "/tmp/rdj3/g09-18029/Gau-14290.chk"
 ------------------------------------------------------------------
 1H-tetrazole CH2N4 casno=288948 state=1 config=1 method=58 basis=5
 ------------------------------------------------------------------
 Charge =  0 Multiplicity = 1

                         Standard orientation:
 ---------------------------------------------------------------------
 Center     Atomic      Atomic             Coordinates (Angstroms)
 Number     Number       Type             X           Y           Z
 ---------------------------------------------------------------------
      1          6           0        1.065090    0.229187    0.000000
      2          7           0        0.000000    1.049931    0.000000
      3          7           0       -1.110892    0.304257    0.000000
      4          7           0       -0.721982   -0.917122    0.000000
      5          7           0        0.628286   -1.007190    0.000000
      6          1           0        2.099870    0.554682    0.000000
      7          1           0       -0.058295    2.061067    0.000000
 ---------------------------------------------------------------------

 SCF Done:  E(RM062X) =  -258.184814018     A.U. after    1 cycles

 The electronic state is 1-A'.
 Alpha  occ. eigenvalues --  -14.87275 -14.83793 -14.81851 -14.78931 -10.64101
 Alpha  occ. eigenvalues --   -1.26986  -1.05771  -1.00038  -0.76563  -0.75059
 Alpha  occ. eigenvalues --   -0.67563  -0.58091  -0.56610  -0.45504  -0.39265
 Alpha  occ. eigenvalues --   -0.37378  -0.36769  -0.35944
 Alpha virt. eigenvalues --    0.03109   0.07172   0.07202   0.11936   0.23413
 Alpha virt. eigenvalues --    0.24135   0.30395   0.34896   0.44357   0.50306
 Alpha virt. eigenvalues --    0.50523   0.59139   0.62680   0.64349   0.70589

 Mulliken charges:
               1
     1  C    0.198874
     2  N   -0.070986
     3  N   -0.062738
     4  N   -0.086998
     5  N   -0.189423
     6  H    0.069548
     7  H    0.141724
 Sum of Mulliken charges =   0.00000

 Dipole moment (field-independent basis, Debye):
    X=              2.4283    Y=              4.7116    Z=              0.0000  Tot=              5.3005
 Quadrupole moment (field-independent basis, Debye-Ang):
   XX=            -28.5257   YY=            -25.9882   ZZ=            -28.1158
   XY=              1.7395   XZ=              0.0000   YZ=              0.0000

  Exact polarizability:  36.867   1.013  36.048   0.000   0.000  15.932
 Approx polarizability:  51.946   0.559  54.433   0.000   0.000  21.370

                      1                      2                      3
                     A"                     A"                     A"
 Frequencies --    606.1301               704.8258               759.9713
 Red. masses --      1.6766                 2.0817                 8.1474
 Frc consts  --      0.3629                 0.6093                 2.7725
 IR Inten    --     83.3159                 6.2003                 8.2716

                      4                      5                      6
                     A"                     A'                     A'
 Frequencies --    882.9134               997.0017              1032.2281
 Red. masses --      1.3750                 3.5362                 5.3255
 Frc consts  --      0.6315                 2.0710                 3.3432
 IR Inten    --     17.2324                 3.0421                 2.6573

                      7                      8                      9
                     A'                     A'                     A'
 Frequencies --   1100.5515              1110.7318              1161.5269
 Red. masses --      2.5298                 3.4508                 2.5076
 Frc consts  --      1.8053                 2.5083                 1.9932
 IR Inten    --     31.1388                22.4994                 9.6993

                     10                     11                     12
                     A'                     A'                     A'
 Frequencies --   1298.8427              1369.5101              1499.8477
 Red. masses --      2.7621                 9.2623                 3.6102
 Frc consts  --      2.7454                10.2353                 4.7849
 IR Inten    --      1.1485                18.9186                 8.8518

                     13                     14                     15
                     A'                     A'                     A'
 Frequencies --   1555.8791              3317.7929              3655.3612
 Red. masses --      4.6545                 1.1032                 1.0856
 Frc consts  --      6.6386                 7.1550                 8.5463
 IR Inten    --     15.3559                 3.4082               127.2832

 - Thermochemistry -
 -------------------
 Temperature   298.150 Kelvin.  Pressure   1.00000 Atm.
 Atom     1 has atomic number  6 and mass  12.00000

 Molecular mass:    70.02795 amu.
 Principal axes and moments of inertia in atomic units:
                           1         2         3
     Eigenvalues --   169.76448 172.88142 342.64590
           X            0.80842   0.58860   0.00000
           Y           -0.58860   0.80842   0.00000
           Z            0.00000   0.00000   1.00000
 This molecule is an asymmetric top.
 Rotational symmetry number  1.
 Rotational temperatures (Kelvin)      0.51020     0.50100     0.25278
 Rotational constants (GHZ):          10.63085    10.43919     5.26707
 Zero-point vibrational energy     125925.6 (Joules/Mol)
                                   30.09694 (Kcal/Mol)
 Warning -- explicit consideration of   1 degrees of freedom as
           vibrations may cause significant error
 Vibrational temperatures:    872.08  1014.09  1093.43  1270.31  1434.46
          (Kelvin)           1485.14  1583.45  1598.09  1671.18  1868.74
                             1970.42  2157.94  2238.56  4773.56  5259.24

 Zero-point correction=                           0.047963 (Hartree/Particle)
 Thermal correction to Energy=                    0.051377
 Thermal correction to Enthalpy=                  0.052322
 Thermal correction to Gibbs Free Energy=         0.021900
 Sum of electronic and zero-point Energies=           -258.136851
 Sum of electronic and thermal Energies=              -258.133437
 Sum of electronic and thermal Enthalpies=            -258.132492
 Sum of electronic and thermal Free Energies=         -258.162914

                     E (Thermal)             CV                S
                      KCal/Mol        Cal/Mol-Kelvin    Cal/Mol-Kelvin
 Total                   32.240             10.951             64.027
 Electronic               0.000              0.000              0.000
 Translational            0.889              2.981             38.656
 Rotational               0.889              2.981             23.823
 Vibrational             30.462              4.990              1.548
 Vibration     1          0.965              1.019              0.439

 Optimization completed.
    -- Stationary point found.
 Normal termination of Gaussian 09 at Mon Dec 16 15:52:51 2013.
