 Gaussian 09, Revision D.01,
 Gaussian 09:  EM64L-G09RevD.01 24-Apr-2013

 -----------------------
 #M062X/6-311G* opt freq
 -----------------------

 ------------------------------------------------------------------
 1H-tetrazole CH2N4 casno=288948 state=1 config=1 method=58 basis=7
 ------------------------------------------------------------------
 Symbolic Z-matrix:
 Charge =  0 Multiplicity = 1

 SCF Done:  E(RM062X) =  -258.211626286     A.U. after   15 cycles
 SCF Done:  E(RM062X) =  -258.213498105     A.U. after   13 cycles
 SCF Done:  E(RM062X) =  -258.213520179     A.U. after    9 cycles
 SCF Done:  E(RM062X) =  -258.213524818     A.U. after    9 cycles
 SCF Done:  E(RM062X) =  -258.213525861     A.U. after    8 cycles
 Optimization completed.
    -- Stationary point found.
 Normal termination of Gaussian 09 at Mon Dec 16 15:53:08 2013.

 ---------------------------------------------------------------------
 #N Geom=AllCheck Guess=TCheck SCRF=Check GenChk RM062X/6-311G(d) Freq
 ---------------------------------------------------------------------

 Structure from the checkpoint file:  "/tmp/rdj3/g09-18029/Gau-14873.chk"
 ------------------------------------------------------------------
 1H-tetrazole CH2N4 casno=288948 state=1 config=1 method=58 basis=7
 ------------------------------------------------------------------
 Charge =  0 Multiplicity = 1

                         Standard orientation:
 ---------------------------------------------------------------------
 Center     Atomic      Atomic             Coordinates (Angstroms)
 Number     Number       Type             X           Y           Z
 ---------------------------------------------------------------------
      1          6           0        1.063516    0.229803    0.000000
      2          7           0        0.000000    1.049005    0.000000
      3          7           0       -1.110759    0.300543    0.000000
      4          7           0       -0.721128   -0.916614    0.000000
      5          7           0        0.630626   -1.002406    0.000000
      6          1           0        2.090717    0.553523    0.000000
      7          1           0       -0.062985    2.053967    0.000000
 ---------------------------------------------------------------------

 SCF Done:  E(RM062X) =  -258.213525861     A.U. after    1 cycles

 The electronic state is 1-A'.
 Alpha  occ. eigenvalues --  -14.86450 -14.83280 -14.81321 -14.78154 -10.63577
 Alpha  occ. eigenvalues --   -1.27848  -1.06473  -1.00916  -0.77458  -0.75819
 Alpha  occ. eigenvalues --   -0.68613  -0.58843  -0.57570  -0.46360  -0.39974
 Alpha  occ. eigenvalues --   -0.38127  -0.37579  -0.36735
 Alpha virt. eigenvalues --    0.02436   0.04914   0.06469   0.09387   0.21798
 Alpha virt. eigenvalues --    0.22712   0.25401   0.32643   0.37582   0.42484
 Alpha virt. eigenvalues --    0.46450   0.47688   0.54092   0.60173   0.60694

 Mulliken charges:
               1
     1  C    0.143250
     2  N   -0.467742
     3  N   -0.007627
     4  N   -0.084859
     5  N   -0.254353
     6  H    0.275813
     7  H    0.395517
 Sum of Mulliken charges =   0.00000

 Dipole moment (field-independent basis, Debye):
    X=              2.5223    Y=              4.8502    Z=              0.0000  Tot=              5.4669
 Quadrupole moment (field-independent basis, Debye-Ang):
   XX=            -28.8246   YY=            -26.3726   ZZ=            -28.5334
   XY=              1.8245   XZ=              0.0000   YZ=              0.0000

  Exact polarizability:  37.707   0.857  37.331   0.000   0.000  17.288
 Approx polarizability:  51.966   0.467  54.845   0.000   0.000  22.591

                      1                      2                      3
                     A"                     A"                     A"
 Frequencies --    615.4455               707.1082               757.4145
 Red. masses --      1.8052                 1.9252                 8.1777
 Frc consts  --      0.4028                 0.5671                 2.7641
 IR Inten    --     97.5698                11.7324                 9.1170

                      4                      5                      6
                     A"                     A'                     A'
 Frequencies --    883.2489              1000.5317              1035.3751
 Red. masses --      1.3661                 4.3369                 6.4608
 Frc consts  --      0.6279                 2.5579                 4.0807
 IR Inten    --     18.0206                 3.2856                 1.0572

                      7                      8                      9
                     A'                     A'                     A'
 Frequencies --   1092.2124              1107.0034              1167.5503
 Red. masses --      3.8480                 3.2397                 2.0902
 Frc consts  --      2.7045                 2.3391                 1.6788
 IR Inten    --     19.9042                31.6104                12.9734

                     10                     11                     12
                     A'                     A'                     A'
 Frequencies --   1305.3755              1364.8920              1501.7513
 Red. masses --      2.5250                 8.7092                 3.3979
 Frc consts  --      2.5351                 9.5593                 4.5149
 IR Inten    --      0.8441                21.8183                10.5643

                     13                     14                     15
                     A'                     A'                     A'
 Frequencies --   1563.3130              3310.0920              3699.7639
 Red. masses --      3.6042                 1.1024                 1.0843
 Frc consts  --      5.1898                 7.1165                 8.7448
 IR Inten    --     19.2419                 1.7612               107.1682

 - Thermochemistry -
 -------------------
 Temperature   298.150 Kelvin.  Pressure   1.00000 Atm.
 Atom     1 has atomic number  6 and mass  12.00000

 Molecular mass:    70.02795 amu.
 Principal axes and moments of inertia in atomic units:
                           1         2         3
     Eigenvalues --   169.24386 172.36403 341.60789
           X            0.86821   0.49620   0.00000
           Y           -0.49620   0.86821   0.00000
           Z            0.00000   0.00000   1.00000
 This molecule is an asymmetric top.
 Rotational symmetry number  1.
 Rotational temperatures (Kelvin)      0.51177     0.50251     0.25355
 Rotational constants (GHZ):          10.66356    10.47052     5.28308
 Zero-point vibrational energy     126272.3 (Joules/Mol)
                                   30.17980 (Kcal/Mol)
 Warning -- explicit consideration of   1 degrees of freedom as
           vibrations may cause significant error
 Vibrational temperatures:    885.49  1017.37  1089.75  1270.80  1439.54
          (Kelvin)           1489.67  1571.45  1592.73  1679.84  1878.14
                             1963.77  2160.68  2249.26  4762.48  5323.13

 Zero-point correction=                           0.048095 (Hartree/Particle)
 Thermal correction to Energy=                    0.051504
 Thermal correction to Enthalpy=                  0.052448
 Thermal correction to Gibbs Free Energy=         0.022039
 Sum of electronic and zero-point Energies=           -258.165431
 Sum of electronic and thermal Energies=              -258.162022
 Sum of electronic and thermal Enthalpies=            -258.161078
 Sum of electronic and thermal Free Energies=         -258.191487

                     E (Thermal)             CV                S
                      KCal/Mol        Cal/Mol-Kelvin    Cal/Mol-Kelvin
 Total                   32.319             10.927             64.001
 Electronic               0.000              0.000              0.000
 Translational            0.889              2.981             38.656
 Rotational               0.889              2.981             23.814
 Vibrational             30.542              4.965              1.531
 Vibration     1          0.975              0.999              0.424

 Optimization completed.
    -- Stationary point found.
 Normal termination of Gaussian 09 at Mon Dec 16 15:53:21 2013.
