 Gaussian 09, Revision D.01,
 Gaussian 09:  EM64L-G09RevD.01 24-Apr-2013

 -------------------------------
 #M062X/6-31G* opt=z-matrix freq
 -------------------------------

 ------------------------------------------------------------------
 1H-tetrazole CH2N4 casno=288948 state=1 config=1 method=58 basis=1
 ------------------------------------------------------------------
 Symbolic Z-matrix:
 Charge =  0 Multiplicity = 1

 SCF Done:  E(RM062X) =  -258.148384143     A.U. after   16 cycles
 SCF Done:  E(RM062X) =  -258.150845984     A.U. after   14 cycles
 SCF Done:  E(RM062X) =  -258.150855774     A.U. after   14 cycles
 SCF Done:  E(RM062X) =  -258.150878865     A.U. after   13 cycles
 SCF Done:  E(RM062X) =  -258.150888354     A.U. after    9 cycles
 SCF Done:  E(RM062X) =  -258.150678654     A.U. after   13 cycles
 SCF Done:  E(RM062X) =  -258.150888939     A.U. after   11 cycles
 SCF Done:  E(RM062X) =  -258.150889104     A.U. after    8 cycles
 SCF Done:  E(RM062X) =  -258.150888710     A.U. after    7 cycles
 SCF Done:  E(RM062X) =  -258.150889029     A.U. after    4 cycles
 SCF Done:  E(RM062X) =  -258.150888970     A.U. after    5 cycles
 SCF Done:  E(RM062X) =  -258.150889171     A.U. after    8 cycles
 SCF Done:  E(RM062X) =  -258.150888833     A.U. after   11 cycles
 SCF Done:  E(RM062X) =  -258.150889231     A.U. after   11 cycles
 SCF Done:  E(RM062X) =  -258.150889115     A.U. after   11 cycles
 SCF Done:  E(RM062X) =  -258.150889240     A.U. after    7 cycles
 SCF Done:  E(RM062X) =  -258.150889059     A.U. after    7 cycles
 SCF Done:  E(RM062X) =  -258.150889286     A.U. after    7 cycles
 SCF Done:  E(RM062X) =  -258.150889266     A.U. after    7 cycles
 Optimization completed.
    -- Stationary point found.
 Normal termination of Gaussian 09 at Tue Nov 26 11:28:44 2013.

 --------------------------------------------------------------------
 #N Geom=AllCheck Guess=TCheck SCRF=Check GenChk RM062X/6-31G(d) Freq
 --------------------------------------------------------------------

 Structure from the checkpoint file:  "/tmp/rdj3/g09-23219/Gau-14568.chk"
 ------------------------------------------------------------------
 1H-tetrazole CH2N4 casno=288948 state=1 config=1 method=58 basis=1
 ------------------------------------------------------------------
 Charge =  0 Multiplicity = 1

                         Standard orientation:
 ---------------------------------------------------------------------
 Center     Atomic      Atomic             Coordinates (Angstroms)
 Number     Number       Type             X           Y           Z
 ---------------------------------------------------------------------
      1          6           0        1.065452    0.231473    0.000000
      2          7           0        0.000000    1.048988    0.000000
      3          7           0       -1.112304    0.302324    0.000000
      4          7           0       -0.720738   -0.918885    0.000000
      5          7           0        0.629789   -1.004104    0.000000
      6          1           0        2.094145    0.556076    0.000000
      7          1           0       -0.064090    2.056826    0.000000
 ---------------------------------------------------------------------

 SCF Done:  E(RM062X) =  -258.150889266     A.U. after    1 cycles

 The electronic state is 1-A'.
 Alpha  occ. eigenvalues --  -14.87790 -14.84450 -14.82503 -14.79357 -10.64258
 Alpha  occ. eigenvalues --   -1.27150  -1.05970  -1.00285  -0.76990  -0.75299
 Alpha  occ. eigenvalues --   -0.68027  -0.58283  -0.57079  -0.45819  -0.39482
 Alpha  occ. eigenvalues --   -0.37659  -0.37007  -0.36203
 Alpha virt. eigenvalues --    0.02984   0.07094   0.10162   0.15752   0.24107
 Alpha virt. eigenvalues --    0.24716   0.33970   0.36979   0.48314   0.57140
 Alpha virt. eigenvalues --    0.57358   0.65065   0.65588   0.71219   0.72655

 Mulliken charges:
               1
     1  C    0.259998
     2  N   -0.458189
     3  N   -0.034631
     4  N   -0.079695
     5  N   -0.314845
     6  H    0.231568
     7  H    0.395794
 Sum of Mulliken charges =   0.00000

 Dipole moment (field-independent basis, Debye):
    X=              2.5067    Y=              4.8095    Z=              0.0000  Tot=              5.4235
 Quadrupole moment (field-independent basis, Debye-Ang):
   XX=            -28.5470   YY=            -26.0173   ZZ=            -28.3475
   XY=              1.7881   XZ=              0.0000   YZ=              0.0000

  Exact polarizability:  36.739   0.909  36.223   0.000   0.000  15.465
 Approx polarizability:  51.441   0.364  54.226   0.000   0.000  20.694

                      1                      2                      3
                     A"                     A"                     A"
 Frequencies --    597.1952               703.6853               756.4146
 Red. masses --      1.6597                 2.1206                 8.6879
 Frc consts  --      0.3487                 0.6187                 2.9288
 IR Inten    --    101.8448                 7.6545                 7.9029

                      4                      5                      6
                     A"                     A'                     A'
 Frequencies --    881.3585              1002.3971              1034.8416
 Red. masses --      1.3543                 4.3673                 5.5901
 Frc consts  --      0.6198                 2.5855                 3.5271
 IR Inten    --     16.4580                 2.8075                 2.0308

                      7                      8                      9
                     A'                     A'                     A'
 Frequencies --   1107.0072              1119.5685              1172.3045
 Red. masses --      3.0087                 3.9470                 2.0381
 Frc consts  --      2.1724                 2.9149                 1.6503
 IR Inten    --     25.5311                26.5950                10.0639

                     10                     11                     12
                     A'                     A'                     A'
 Frequencies --   1310.9788              1370.3510              1506.7494
 Red. masses --      2.5940                 9.4635                 3.4739
 Frc consts  --      2.6267                10.4705                 4.6467
 IR Inten    --      1.1031                21.3839                10.2713

                     13                     14                     15
                     A'                     A'                     A'
 Frequencies --   1563.8231              3340.1063              3681.4797
 Red. masses --      3.9770                 1.1020                 1.0846
 Frc consts  --      5.7303                 7.2434                 8.6605
 IR Inten    --     19.3816                 2.4052               118.0219

 - Thermochemistry -
 -------------------
 Temperature   298.150 Kelvin.  Pressure   1.00000 Atm.
 Atom     1 has atomic number  6 and mass  12.00000

 Molecular mass:    70.02795 amu.
 Principal axes and moments of inertia in atomic units:
                           1         2         3
     Eigenvalues --   169.74518 172.69657 342.44175
           X            0.85741   0.51464   0.00000
           Y           -0.51464   0.85741   0.00000
           Z            0.00000   0.00000   1.00000
 This molecule is an asymmetric top.
 Rotational symmetry number  1.
 Rotational temperatures (Kelvin)      0.51026     0.50154     0.25293
 Rotational constants (GHZ):          10.63206    10.45036     5.27021
 Zero-point vibrational energy     126494.7 (Joules/Mol)
                                   30.23296 (Kcal/Mol)
 Warning -- explicit consideration of   1 degrees of freedom as
           vibrations may cause significant error
 Vibrational temperatures:    859.23  1012.44  1088.31  1268.08  1442.22
          (Kelvin)           1488.90  1592.73  1610.81  1686.68  1886.20
                             1971.63  2167.87  2249.99  4805.66  5296.82

 Zero-point correction=                           0.048179 (Hartree/Particle)
 Thermal correction to Energy=                    0.051597
 Thermal correction to Enthalpy=                  0.052541
 Thermal correction to Gibbs Free Energy=         0.022116
 Sum of electronic and zero-point Energies=           -258.102710
 Sum of electronic and thermal Energies=              -258.099292
 Sum of electronic and thermal Enthalpies=            -258.098348
 Sum of electronic and thermal Free Energies=         -258.128774

                     E (Thermal)             CV                S
                      KCal/Mol        Cal/Mol-Kelvin    Cal/Mol-Kelvin
 Total                   32.377             10.942             64.035
 Electronic               0.000              0.000              0.000
 Translational            0.889              2.981             38.656
 Rotational               0.889              2.981             23.822
 Vibrational             30.600              4.981              1.558
 Vibration     1          0.955              1.038              0.455

 Normal termination of Gaussian 09 at Tue Nov 26 11:28:55 2013.
