 Gaussian 09, Revision D.01,
 Gaussian 09:  EM64L-G09RevD.01 24-Apr-2013

 ---------------------------
 #M062X/aug-cc-pVDZ opt freq
 ---------------------------

 -------------------------------------------------------------------
 1H-tetrazole CH2N4 casno=288948 state=1 config=1 method=58 basis=17
 -------------------------------------------------------------------
 Symbolic Z-matrix:
 Charge =  0 Multiplicity = 1

 SCF Done:  E(RM062X) =  -258.202027101     A.U. after   13 cycles
 SCF Done:  E(RM062X) =  -258.204795776     A.U. after   11 cycles
 SCF Done:  E(RM062X) =  -258.204833662     A.U. after   10 cycles
 SCF Done:  E(RM062X) =  -258.204850825     A.U. after   10 cycles
 SCF Done:  E(RM062X) =  -258.204853372     A.U. after    9 cycles
 Optimization completed.
    -- Stationary point found.
 Normal termination of Gaussian 09 at Mon Dec 16 15:50:47 2013.

 ----------------------------------------------------------------------
 #N Geom=AllCheck Guess=TCheck SCRF=Check GenChk RM062X/Aug-CC-pVDZ Fre
 q
 ----------------------------------------------------------------------

 Structure from the checkpoint file:  "/tmp/rdj3/g09-18029/Gau-11722.chk"
 -------------------------------------------------------------------
 1H-tetrazole CH2N4 casno=288948 state=1 config=1 method=58 basis=17
 -------------------------------------------------------------------
 Charge =  0 Multiplicity = 1

                         Standard orientation:
 ---------------------------------------------------------------------
 Center     Atomic      Atomic             Coordinates (Angstroms)
 Number     Number       Type             X           Y           Z
 ---------------------------------------------------------------------
      1          6           0        1.065866    0.231768    0.000000
      2          7           0        0.000000    1.049893    0.000000
      3          7           0       -1.111802    0.304050    0.000000
      4          7           0       -0.722339   -0.919784    0.000000
      5          7           0        0.629353   -1.006289    0.000000
      6          1           0        2.098231    0.556025    0.000000
      7          1           0       -0.059910    2.058278    0.000000
 ---------------------------------------------------------------------

 SCF Done:  E(RM062X) =  -258.204853372     A.U. after    1 cycles

 The electronic state is 1-A'.
 Alpha  occ. eigenvalues --  -14.88138 -14.85209 -14.83462 -14.80301 -10.64766
 Alpha  occ. eigenvalues --   -1.27743  -1.06624  -1.00880  -0.77477  -0.75940
 Alpha  occ. eigenvalues --   -0.68412  -0.58840  -0.57456  -0.46536  -0.40102
 Alpha  occ. eigenvalues --   -0.38504  -0.37573  -0.37172
 Alpha virt. eigenvalues --   -0.02086   0.00784   0.01248   0.03589   0.03828
 Alpha virt. eigenvalues --    0.05870   0.06103   0.07597   0.09373   0.10032
 Alpha virt. eigenvalues --    0.11591   0.11714   0.13297   0.14203   0.15337

 Mulliken charges:
               1
     1  C    0.820451
     2  N    0.077303
     3  N   -0.086483
     4  N   -0.250668
     5  N   -0.228069
     6  H   -0.245995
     7  H   -0.086538
 Sum of Mulliken charges =   0.00000

 Dipole moment (field-independent basis, Debye):
    X=              2.5300    Y=              4.7695    Z=              0.0000  Tot=              5.3989
 Quadrupole moment (field-independent basis, Debye-Ang):
   XX=            -29.0092   YY=            -26.5797   ZZ=            -28.9826
   XY=              1.8674   XZ=              0.0000   YZ=              0.0000

  Exact polarizability:  44.204   0.504  43.736  -0.002   0.000  25.764
 Approx polarizability:  58.761   0.428  61.311   0.000   0.000  33.242

                      1                      2                      3
                     A"                     A"                     A"
 Frequencies --    615.9886               702.8338               756.3447
 Red. masses --      1.6709                 2.0184                 8.9276
 Frc consts  --      0.3735                 0.5874                 3.0090
 IR Inten    --     83.3967                 6.5268                 6.9116

                      4                      5                      6
                     A"                     A'                     A'
 Frequencies --    882.3845               996.2248              1029.4637
 Red. masses --      1.3860                 3.8306                 5.8046
 Frc consts  --      0.6358                 2.2399                 3.6245
 IR Inten    --     18.1453                 2.4635                 1.8927

                      7                      8                      9
                     A'                     A'                     A'
 Frequencies --   1103.6569              1110.7963              1161.1133
 Red. masses --      3.1047                 3.0784                 2.2789
 Frc consts  --      2.2281                 2.2379                 1.8102
 IR Inten    --     21.7269                30.1227                 8.5661

                     10                     11                     12
                     A'                     A'                     A'
 Frequencies --   1300.3456              1359.3408              1496.8584
 Red. masses --      2.7193                 9.7488                 3.5798
 Frc consts  --      2.7091                10.6134                 4.7258
 IR Inten    --      0.8949                15.5037                 9.6754

                     13                     14                     15
                     A'                     A'                     A'
 Frequencies --   1549.1771              3315.8239              3668.6783
 Red. masses --      4.0420                 1.1032                 1.0851
 Frc consts  --      5.7155                 7.1467                 8.6044
 IR Inten    --     17.1473                 3.3624               123.9406

 - Thermochemistry -
 -------------------
 Temperature   298.150 Kelvin.  Pressure   1.00000 Atm.
 Atom     1 has atomic number  6 and mass  12.00000

 Molecular mass:    70.02795 amu.
 Principal axes and moments of inertia in atomic units:
                           1         2         3
     Eigenvalues --   170.14469 172.90181 343.04650
           X            0.82980   0.55807   0.00000
           Y           -0.55807   0.82980   0.00000
           Z            0.00000   0.00000   1.00000
 This molecule is an asymmetric top.
 Rotational symmetry number  1.
 Rotational temperatures (Kelvin)      0.50906     0.50094     0.25248
 Rotational constants (GHZ):          10.60710    10.43795     5.26092
 Zero-point vibrational energy     125901.2 (Joules/Mol)
                                   30.09110 (Kcal/Mol)
 Warning -- explicit consideration of   1 degrees of freedom as
           vibrations may cause significant error
 Vibrational temperatures:    886.27  1011.22  1088.21  1269.55  1433.34
          (Kelvin)           1481.17  1587.91  1598.19  1670.58  1870.90
                             1955.79  2153.64  2228.92  4770.73  5278.40

 Zero-point correction=                           0.047953 (Hartree/Particle)
 Thermal correction to Energy=                    0.051366
 Thermal correction to Enthalpy=                  0.052310
 Thermal correction to Gibbs Free Energy=         0.021891
 Sum of electronic and zero-point Energies=           -258.156900
 Sum of electronic and thermal Energies=              -258.153488
 Sum of electronic and thermal Enthalpies=            -258.152544
 Sum of electronic and thermal Free Energies=         -258.182963

                     E (Thermal)             CV                S
                      KCal/Mol        Cal/Mol-Kelvin    Cal/Mol-Kelvin
 Total                   32.232             10.948             64.022
 Electronic               0.000              0.000              0.000
 Translational            0.889              2.981             38.656
 Rotational               0.889              2.981             23.827
 Vibrational             30.455              4.987              1.539
 Vibration     1          0.976              0.998              0.423

 Optimization completed.
    -- Stationary point found.
 Normal termination of Gaussian 09 at Mon Dec 16 15:51:15 2013.
