 Gaussian 09, Revision D.01,
 Gaussian 09:  EM64L-G09RevD.01 24-Apr-2013

 ----------------------
 #M062X/STO-3G opt freq
 ----------------------

 -------------------------------------------------------------------
 1H-tetrazole CH2N4 casno=288948 state=1 config=1 method=58 basis=20
 -------------------------------------------------------------------
 Symbolic Z-matrix:
 Charge =  0 Multiplicity = 1

 SCF Done:  E(RM062X) =  -254.861969989     A.U. after   17 cycles
 SCF Done:  E(RM062X) =  -254.901418568     A.U. after   16 cycles
 SCF Done:  E(RM062X) =  -254.902513321     A.U. after   15 cycles
 SCF Done:  E(RM062X) =  -254.902576237     A.U. after   16 cycles
 SCF Done:  E(RM062X) =  -254.902655816     A.U. after   10 cycles
 Optimization completed.
    -- Stationary point found.
 Normal termination of Gaussian 09 at Mon Dec 16 15:51:25 2013.

 ------------------------------------------------------------------
 #N Geom=AllCheck Guess=TCheck SCRF=Check GenChk RM062X/STO-3G Freq
 ------------------------------------------------------------------

 Structure from the checkpoint file:  "/tmp/rdj3/g09-18029/Gau-12305.chk"
 -------------------------------------------------------------------
 1H-tetrazole CH2N4 casno=288948 state=1 config=1 method=58 basis=20
 -------------------------------------------------------------------
 Charge =  0 Multiplicity = 1

                         Standard orientation:
 ---------------------------------------------------------------------
 Center     Atomic      Atomic             Coordinates (Angstroms)
 Number     Number       Type             X           Y           Z
 ---------------------------------------------------------------------
      1          6           0        1.096450    0.249307    0.000000
      2          7           0        0.000000    1.090269    0.000000
      3          7           0       -1.178638    0.311248    0.000000
      4          7           0       -0.747648   -0.969817    0.000000
      5          7           0        0.687850   -1.036843    0.000000
      6          1           0        2.130314    0.607217    0.000000
      7          1           0       -0.039963    2.132936    0.000000
 ---------------------------------------------------------------------

 SCF Done:  E(RM062X) =  -254.902655816     A.U. after    1 cycles

 The electronic state is 1-A'.
 Alpha  occ. eigenvalues --  -14.71947 -14.66427 -14.63410 -14.60610 -10.48371
 Alpha  occ. eigenvalues --   -1.17795  -0.98491  -0.93937  -0.70085  -0.68164
 Alpha  occ. eigenvalues --   -0.61214  -0.49955  -0.49326  -0.36772  -0.31013
 Alpha  occ. eigenvalues --   -0.29750  -0.29659  -0.28385
 Alpha virt. eigenvalues --    0.09881   0.14855   0.29196   0.31476   0.41291
 Alpha virt. eigenvalues --    0.43100   0.45427   0.59708   0.65260

 Mulliken charges:
               1
     1  C    0.084826
     2  N   -0.210322
     3  N   -0.040661
     4  N   -0.064392
     5  N   -0.159526
     6  H    0.126534
     7  H    0.263541
 Sum of Mulliken charges =   0.00000

 Dipole moment (field-independent basis, Debye):
    X=              2.1686    Y=              4.4522    Z=              0.0000  Tot=              4.9522
 Quadrupole moment (field-independent basis, Debye-Ang):
   XX=            -27.5108   YY=            -24.8681   ZZ=            -25.8744
   XY=              1.7572   XZ=              0.0000   YZ=              0.0000

  Exact polarizability:  23.874   1.150  25.139   0.000   0.000   6.159
 Approx polarizability:  40.917  -0.401  47.769   0.000   0.000   6.026

                      1                      2                      3
                     A"                     A"                     A"
 Frequencies --    515.9111               657.4571               672.1604
 Red. masses --      1.9581                 1.9996                 7.2924
 Frc consts  --      0.3071                 0.5092                 1.9412
 IR Inten    --     85.1787                16.3735                10.3497

                      4                      5                      6
                     A"                     A'                     A'
 Frequencies --    881.9392               946.0924               989.2231
 Red. masses --      1.2745                 5.6712                 6.6212
 Frc consts  --      0.5841                 2.9908                 3.8174
 IR Inten    --      7.2286                 1.2145                 0.9936

                      7                      8                      9
                     A'                     A'                     A'
 Frequencies --   1060.8941              1081.0370              1155.1987
 Red. masses --      4.4556                 2.9847                 1.4819
 Frc consts  --      2.9546                 2.0551                 1.1652
 IR Inten    --     19.0349                20.1760                 7.3339

                     10                     11                     12
                     A'                     A'                     A'
 Frequencies --   1295.2000              1305.2372              1500.7738
 Red. masses --      3.2197                 8.4353                 3.8400
 Frc consts  --      3.1823                 8.4670                 5.0958
 IR Inten    --      1.2030                 0.3181                13.4785

                     13                     14                     15
                     A'                     A'                     A'
 Frequencies --   1557.2519              3564.2584              3799.2575
 Red. masses --      3.7227                 1.1027                 1.0867
 Frc consts  --      5.3190                 8.2539                 9.2420
 IR Inten    --     37.0960                42.2993               120.5734

 - Thermochemistry -
 -------------------
 Temperature   298.150 Kelvin.  Pressure   1.00000 Atm.
 Atom     1 has atomic number  6 and mass  12.00000

 Molecular mass:    70.02795 amu.
 Principal axes and moments of inertia in atomic units:
                           1         2         3
     Eigenvalues --   184.19915 189.58006 373.77921
           X            0.91619   0.40076   0.00000
           Y           -0.40076   0.91619   0.00000
           Z            0.00000   0.00000   1.00000
 This molecule is an asymmetric top.
 Rotational symmetry number  1.
 Rotational temperatures (Kelvin)      0.47022     0.45687     0.23172
 Rotational constants (GHZ):           9.79777     9.51968     4.82836
 Zero-point vibrational energy     125499.6 (Joules/Mol)
                                   29.99512 (Kcal/Mol)
 Warning -- explicit consideration of   1 degrees of freedom as
           vibrations may cause significant error
 Vibrational temperatures:    742.28   945.93   967.09  1268.91  1361.21
          (Kelvin)           1423.27  1526.39  1555.37  1662.07  1863.50
                             1877.94  2159.28  2240.54  5128.17  5466.28

 Zero-point correction=                           0.047800 (Hartree/Particle)
 Thermal correction to Energy=                    0.051349
 Thermal correction to Enthalpy=                  0.052294
 Thermal correction to Gibbs Free Energy=         0.021558
 Sum of electronic and zero-point Energies=           -254.854856
 Sum of electronic and thermal Energies=              -254.851306
 Sum of electronic and thermal Enthalpies=            -254.850362
 Sum of electronic and thermal Free Energies=         -254.881098

                     E (Thermal)             CV                S
                      KCal/Mol        Cal/Mol-Kelvin    Cal/Mol-Kelvin
 Total                   32.222             11.607             64.689
 Electronic               0.000              0.000              0.000
 Translational            0.889              2.981             38.656
 Rotational               0.889              2.981             24.083
 Vibrational             30.445              5.645              1.951
 Vibration     1          0.871              1.215              0.620

 Optimization completed.
    -- Stationary point found.
 Normal termination of Gaussian 09 at Mon Dec 16 15:51:28 2013.
