 Gaussian 09, Revision D.01,
 Gaussian 09:  EM64L-G09RevD.01 24-Apr-2013

 ------------------------------------
 #M062X/aug-cc-pVTZ opt=z-matrix freq
 ------------------------------------

 -------------------------------------------------------------------
 1H-tetrazole CH2N4 casno=288948 state=1 config=1 method=58 basis=18
 -------------------------------------------------------------------
 Symbolic Z-matrix:
 Charge =  0 Multiplicity = 1

 SCF Done:  E(RM062X) =  -258.252669409     A.U. after   13 cycles
 SCF Done:  E(RM062X) =  -258.254186503     A.U. after   10 cycles
 SCF Done:  E(RM062X) =  -258.254195908     A.U. after   10 cycles
 SCF Done:  E(RM062X) =  -258.254215279     A.U. after    9 cycles
 SCF Done:  E(RM062X) =  -258.254221912     A.U. after    8 cycles
 SCF Done:  E(RM062X) =  -258.253988481     A.U. after   10 cycles
 SCF Done:  E(RM062X) =  -258.254222434     A.U. after    7 cycles
 SCF Done:  E(RM062X) =  -258.254222042     A.U. after    7 cycles
 SCF Done:  E(RM062X) =  -258.254222541     A.U. after    2 cycles
 SCF Done:  E(RM062X) =  -258.254204074     A.U. after    9 cycles
 SCF Done:  E(RM062X) =  -258.254222433     A.U. after    5 cycles
 SCF Done:  E(RM062X) =  -258.254222578     A.U. after    6 cycles
 SCF Done:  E(RM062X) =  -258.254183228     A.U. after    8 cycles
 SCF Done:  E(RM062X) =  -258.251097126     A.U. after   11 cycles
 SCF Done:  E(RM062X) =  -258.254222603     A.U. after    3 cycles
 SCF Done:  E(RM062X) =  -258.254124676     A.U. after   10 cycles
 SCF Done:  E(RM062X) =  -258.254222569     A.U. after    4 cycles
 Optimization completed.
    -- Stationary point found.
 Normal termination of Gaussian 09 at Tue Nov 26 11:16:37 2013.

 ----------------------------------------------------------------------
 #N Geom=AllCheck Guess=TCheck SCRF=Check GenChk RM062X/Aug-CC-pVTZ Fre
 q
 ----------------------------------------------------------------------

 Structure from the checkpoint file:  "/tmp/rdj3/g09-23219/Gau-11948.chk"
 -------------------------------------------------------------------
 1H-tetrazole CH2N4 casno=288948 state=1 config=1 method=58 basis=18
 -------------------------------------------------------------------
 Charge =  0 Multiplicity = 1

                         Standard orientation:
 ---------------------------------------------------------------------
 Center     Atomic      Atomic             Coordinates (Angstroms)
 Number     Number       Type             X           Y           Z
 ---------------------------------------------------------------------
      1          6           0        1.061989    0.231258    0.000000
      2          7           0        0.000000    1.046857    0.000000
      3          7           0       -1.108509    0.299983    0.000000
      4          7           0       -0.720419   -0.916757    0.000000
      5          7           0        0.629220   -1.000616    0.000000
      6          1           0        2.087070    0.555222    0.000000
      7          1           0       -0.061050    2.050966    0.000000
 ---------------------------------------------------------------------

 SCF Done:  E(RM062X) =  -258.254222569     A.U. after    1 cycles

 The electronic state is 1-A'.
 Alpha  occ. eigenvalues --  -14.86863 -14.84028 -14.82270 -14.78930 -10.63768
 Alpha  occ. eigenvalues --   -1.28123  -1.06753  -1.01153  -0.77648  -0.76150
 Alpha  occ. eigenvalues --   -0.68772  -0.59436  -0.57753  -0.46831  -0.40518
 Alpha  occ. eigenvalues --   -0.38614  -0.38001  -0.37332
 Alpha virt. eigenvalues --   -0.02109   0.00627   0.01177   0.02942   0.03142
 Alpha virt. eigenvalues --    0.05226   0.05415   0.06309   0.07552   0.07785
 Alpha virt. eigenvalues --    0.08813   0.09474   0.10395   0.11759   0.12479

 Mulliken charges:
               1
     1  C   -0.126090
     2  N    0.200553
     3  N   -0.281666
     4  N   -0.154215
     5  N   -0.304256
     6  H    0.508557
     7  H    0.157117
 Sum of Mulliken charges =   0.00000

 Dipole moment (field-independent basis, Debye):
    X=              2.5114    Y=              4.7543    Z=              0.0000  Tot=              5.3769
 Quadrupole moment (field-independent basis, Debye-Ang):
   XX=            -29.0665   YY=            -26.6284   ZZ=            -28.8027
   XY=              1.8756   XZ=              0.0000   YZ=              0.0000

  Exact polarizability:  44.260   0.479  43.966   0.000   0.000  26.134
 Approx polarizability:  58.169   0.426  60.773   0.000   0.000  33.158

                      1                      2                      3
                     A"                     A"                     A"
 Frequencies --    610.9228               702.8396               758.6008
 Red. masses --      1.5895                 2.1542                 8.9853
 Frc consts  --      0.3495                 0.6270                 3.0465
 IR Inten    --     86.9740                 5.0826                 6.9654

                      4                      5                      6
                     A"                     A'                     A'
 Frequencies --    900.5735               996.6365              1029.5682
 Red. masses --      1.3829                 4.2357                 6.2772
 Frc consts  --      0.6608                 2.4789                 3.9203
 IR Inten    --     14.6142                 2.4846                 1.0650

                      7                      8                      9
                     A'                     A'                     A'
 Frequencies --   1086.7629              1096.2174              1160.7842
 Red. masses --      4.1840                 2.9527                 2.0805
 Frc consts  --      2.9115                 2.0905                 1.6517
 IR Inten    --     17.5106                30.6571                12.6325

                     10                     11                     12
                     A'                     A'                     A'
 Frequencies --   1295.1516              1352.1017              1485.3832
 Red. masses --      2.4350                 9.8633                 3.3874
 Frc consts  --      2.4066                10.6241                 4.4035
 IR Inten    --      1.2016                16.1631                10.5290

                     13                     14                     15
                     A'                     A'                     A'
 Frequencies --   1544.6452              3298.5985              3664.4250
 Red. masses --      3.9340                 1.1025                 1.0845
 Frc consts  --      5.5303                 7.0676                 8.5804
 IR Inten    --     18.8728                 3.0854               121.5723

 - Thermochemistry -
 -------------------
 Temperature   298.150 Kelvin.  Pressure   1.00000 Atm.
 Atom     1 has atomic number  6 and mass  12.00000

 Molecular mass:    70.02795 amu.
 Principal axes and moments of inertia in atomic units:
                           1         2         3
     Eigenvalues --   168.98875 171.61873 340.60748
           X            0.87710   0.48031   0.00000
           Y           -0.48031   0.87710   0.00000
           Z            0.00000   0.00000   1.00000
 This molecule is an asymmetric top.
 Rotational symmetry number  1.
 Rotational temperatures (Kelvin)      0.51254     0.50469     0.25429
 Rotational constants (GHZ):          10.67965    10.51599     5.29860
 Zero-point vibrational energy     125507.5 (Joules/Mol)
                                   29.99701 (Kcal/Mol)
 Warning -- explicit consideration of   1 degrees of freedom as
           vibrations may cause significant error
 Vibrational temperatures:    878.98  1011.23  1091.46  1295.72  1433.94
          (Kelvin)           1481.32  1563.61  1577.21  1670.11  1863.43
                             1945.37  2137.13  2222.40  4745.94  5272.28

 Zero-point correction=                           0.047803 (Hartree/Particle)
 Thermal correction to Energy=                    0.051218
 Thermal correction to Enthalpy=                  0.052162
 Thermal correction to Gibbs Free Energy=         0.021750
 Sum of electronic and zero-point Energies=           -258.206419
 Sum of electronic and thermal Energies=              -258.203005
 Sum of electronic and thermal Enthalpies=            -258.202061
 Sum of electronic and thermal Free Energies=         -258.232472

                     E (Thermal)             CV                S
                      KCal/Mol        Cal/Mol-Kelvin    Cal/Mol-Kelvin
 Total                   32.140             10.966             64.006
 Electronic               0.000              0.000              0.000
 Translational            0.889              2.981             38.656
 Rotational               0.889              2.981             23.806
 Vibrational             30.362              5.004              1.545
 Vibration     1          0.970              1.009              0.431

 Normal termination of Gaussian 09 at Tue Nov 26 11:25:08 2013.
