 Gaussian 09, Revision D.01,
 Gaussian 09:  EM64L-G09RevD.01 24-Apr-2013

 -------------------------------------
 #M062X/6-31G(2df,p) opt=z-matrix freq
 -------------------------------------

 -------------------------------------------------------------------
 1H-tetrazole CH2N4 casno=288948 state=1 config=1 method=58 basis=19
 -------------------------------------------------------------------
 Symbolic Z-matrix:
 Charge =  0 Multiplicity = 1

 SCF Done:  E(RM062X) =  -258.169428082     A.U. after   15 cycles
 SCF Done:  E(RM062X) =  -258.171332675     A.U. after   12 cycles
 SCF Done:  E(RM062X) =  -258.171353269     A.U. after   12 cycles
 SCF Done:  E(RM062X) =  -258.171367078     A.U. after   11 cycles
 SCF Done:  E(RM062X) =  -258.171376423     A.U. after    8 cycles
 SCF Done:  E(RM062X) =  -258.170936234     A.U. after   14 cycles
 SCF Done:  E(RM062X) =  -258.171377415     A.U. after   10 cycles
 SCF Done:  E(RM062X) =  -258.171377615     A.U. after    7 cycles
 SCF Done:  E(RM062X) =  -258.171208593     A.U. after   12 cycles
 SCF Done:  E(RM062X) =  -258.171377166     A.U. after   10 cycles
 SCF Done:  E(RM062X) =  -258.171377613     A.U. after    2 cycles
 Optimization completed.
    -- Stationary point found.
 Normal termination of Gaussian 09 at Tue Nov 26 11:26:55 2013.

 ----------------------------------------------------------------------
 #N Geom=AllCheck Guess=TCheck SCRF=Check GenChk RM062X/6-31G(2df,p) Fr
 eq
 ----------------------------------------------------------------------

 Structure from the checkpoint file:  "/tmp/rdj3/g09-23219/Gau-13517.chk"
 -------------------------------------------------------------------
 1H-tetrazole CH2N4 casno=288948 state=1 config=1 method=58 basis=19
 -------------------------------------------------------------------
 Charge =  0 Multiplicity = 1

                         Standard orientation:
 ---------------------------------------------------------------------
 Center     Atomic      Atomic             Coordinates (Angstroms)
 Number     Number       Type             X           Y           Z
 ---------------------------------------------------------------------
      1          6           0        1.062626    0.231301    0.000000
      2          7           0        0.000000    1.047816    0.000000
      3          7           0       -1.109695    0.301875    0.000000
      4          7           0       -0.719946   -0.917587    0.000000
      5          7           0        0.629430   -1.003195    0.000000
      6          1           0        2.088749    0.557538    0.000000
      7          1           0       -0.063022    2.052295    0.000000
 ---------------------------------------------------------------------

 SCF Done:  E(RM062X) =  -258.171377613     A.U. after    1 cycles

 The electronic state is 1-A'.
 Alpha  occ. eigenvalues --  -14.86839 -14.83642 -14.81829 -14.78664 -10.63641
 Alpha  occ. eigenvalues --   -1.26652  -1.05499  -0.99765  -0.76502  -0.74885
 Alpha  occ. eigenvalues --   -0.67578  -0.58126  -0.56603  -0.45508  -0.39241
 Alpha  occ. eigenvalues --   -0.37312  -0.36717  -0.35949
 Alpha virt. eigenvalues --    0.03297   0.07261   0.10631   0.16089   0.23779
 Alpha virt. eigenvalues --    0.24633   0.31361   0.33732   0.44190   0.49146
 Alpha virt. eigenvalues --    0.50972   0.52764   0.56698   0.60098   0.61780

 Mulliken charges:
               1
     1  C    0.073711
     2  N   -0.229959
     3  N   -0.065847
     4  N   -0.081810
     5  N   -0.214082
     6  H    0.194801
     7  H    0.323186
 Sum of Mulliken charges =   0.00000

 Dipole moment (field-independent basis, Debye):
    X=              2.4301    Y=              4.6638    Z=              0.0000  Tot=              5.2589
 Quadrupole moment (field-independent basis, Debye-Ang):
   XX=            -28.3018   YY=            -25.7299   ZZ=            -28.1234
   XY=              1.7433   XZ=              0.0000   YZ=              0.0000

  Exact polarizability:  37.992   0.918  37.253   0.000   0.000  18.176
 Approx polarizability:  53.450   0.473  55.950   0.000   0.000  25.521

                      1                      2                      3
                     A"                     A"                     A"
 Frequencies --    610.7734               705.3880               761.2376
 Red. masses --      1.5946                 2.1747                 8.8639
 Frc consts  --      0.3505                 0.6375                 3.0263
 IR Inten    --     85.1218                 5.1204                 7.2745

                      4                      5                      6
                     A"                     A'                     A'
 Frequencies --    898.5548              1002.0622              1034.7930
 Red. masses --      1.3736                 4.2123                 5.4535
 Frc consts  --      0.6534                 2.4921                 3.4406
 IR Inten    --     12.6272                 2.6932                 2.7067

                      7                      8                      9
                     A'                     A'                     A'
 Frequencies --   1106.9556              1114.8585              1169.8261
 Red. masses --      3.0867                 3.5601                 2.1242
 Frc consts  --      2.2285                 2.6071                 1.7127
 IR Inten    --     23.4299                26.9352                10.5447

                     10                     11                     12
                     A'                     A'                     A'
 Frequencies --   1304.5484              1366.4372              1496.8127
 Red. masses --      2.5934                 9.5959                 3.4623
 Frc consts  --      2.6004                10.5564                 4.5703
 IR Inten    --      1.2569                17.8214                 9.7637

                     13                     14                     15
                     A'                     A'                     A'
 Frequencies --   1554.1958              3315.3385              3687.7553
 Red. masses --      4.1739                 1.1020                 1.0843
 Frc consts  --      5.9403                 7.1367                 8.6877
 IR Inten    --     17.8045                 2.1952               120.5416

 - Thermochemistry -
 -------------------
 Temperature   298.150 Kelvin.  Pressure   1.00000 Atm.
 Atom     1 has atomic number  6 and mass  12.00000

 Molecular mass:    70.02795 amu.
 Principal axes and moments of inertia in atomic units:
                           1         2         3
     Eigenvalues --   169.25149 172.07156 341.32305
           X            0.83268   0.55376   0.00000
           Y           -0.55376   0.83268   0.00000
           Z            0.00000   0.00000   1.00000
 This molecule is an asymmetric top.
 Rotational symmetry number  1.
 Rotational temperatures (Kelvin)      0.51175     0.50336     0.25376
 Rotational constants (GHZ):          10.66307    10.48832     5.28749
 Zero-point vibrational energy     126382.7 (Joules/Mol)
                                   30.20619 (Kcal/Mol)
 Warning -- explicit consideration of   1 degrees of freedom as
           vibrations may cause significant error
 Vibrational temperatures:    878.77  1014.89  1095.25  1292.82  1441.74
          (Kelvin)           1488.83  1592.66  1604.03  1683.12  1876.95
                             1966.00  2153.58  2236.14  4770.03  5305.85

 Zero-point correction=                           0.048137 (Hartree/Particle)
 Thermal correction to Energy=                    0.051542
 Thermal correction to Enthalpy=                  0.052486
 Thermal correction to Gibbs Free Energy=         0.022083
 Sum of electronic and zero-point Energies=           -258.123241
 Sum of electronic and thermal Energies=              -258.119835
 Sum of electronic and thermal Enthalpies=            -258.118891
 Sum of electronic and thermal Free Energies=         -258.149295

                     E (Thermal)             CV                S
                      KCal/Mol        Cal/Mol-Kelvin    Cal/Mol-Kelvin
 Total                   32.343             10.893             63.990
 Electronic               0.000              0.000              0.000
 Translational            0.889              2.981             38.656
 Rotational               0.889              2.981             23.812
 Vibrational             30.566              4.931              1.522
 Vibration     1          0.970              1.009              0.431

 Normal termination of Gaussian 09 at Tue Nov 26 11:27:48 2013.
