 Gaussian 09, Revision D.01,
 Gaussian 09:  EM64L-G09RevD.01 24-Apr-2013

 --------------------------------
 #M062X/cc-pVTZ opt=z-matrix freq
 --------------------------------

 ------------------------------------------------------------------
 1H-tetrazole CH2N4 casno=288948 state=1 config=1 method=58 basis=6
 ------------------------------------------------------------------
 Symbolic Z-matrix:
 Charge =  0 Multiplicity = 1

 SCF Done:  E(RM062X) =  -258.248300714     A.U. after   14 cycles
 SCF Done:  E(RM062X) =  -258.249837046     A.U. after   12 cycles
 SCF Done:  E(RM062X) =  -258.249843451     A.U. after   11 cycles
 SCF Done:  E(RM062X) =  -258.249861532     A.U. after   10 cycles
 SCF Done:  E(RM062X) =  -258.249869211     A.U. after    8 cycles
 SCF Done:  E(RM062X) =  -258.249543634     A.U. after   12 cycles
 SCF Done:  E(RM062X) =  -258.249869579     A.U. after   10 cycles
 SCF Done:  E(RM062X) =  -258.249869629     A.U. after    6 cycles
 SCF Done:  E(RM062X) =  -258.249503026     A.U. after   11 cycles
 SCF Done:  E(RM062X) =  -258.246788160     A.U. after   14 cycles
 SCF Done:  E(RM062X) =  -258.249595427     A.U. after   12 cycles
 SCF Done:  E(RM062X) =  -258.249869599     A.U. after   10 cycles
 SCF Done:  E(RM062X) =  -258.249869717     A.U. after    5 cycles
 SCF Done:  E(RM062X) =  -258.249869508     A.U. after    7 cycles
 SCF Done:  E(RM062X) =  -258.249869712     A.U. after    2 cycles
 SCF Done:  E(RM062X) =  -258.249869721     A.U. after    5 cycles
 SCF Done:  E(RM062X) =  -258.249869081     A.U. after   10 cycles
 SCF Done:  E(RM062X) =  -258.249869702     A.U. after    4 cycles
 SCF Done:  E(RM062X) =  -258.249869721     A.U. after    4 cycles
 Optimization completed.
    -- Stationary point found.
 Normal termination of Gaussian 09 at Tue Nov 26 11:41:37 2013.

 -------------------------------------------------------------------
 #N Geom=AllCheck Guess=TCheck SCRF=Check GenChk RM062X/CC-pVTZ Freq
 -------------------------------------------------------------------

 Structure from the checkpoint file:  "/tmp/rdj3/g09-23219/Gau-27596.chk"
 ------------------------------------------------------------------
 1H-tetrazole CH2N4 casno=288948 state=1 config=1 method=58 basis=6
 ------------------------------------------------------------------
 Charge =  0 Multiplicity = 1

                         Standard orientation:
 ---------------------------------------------------------------------
 Center     Atomic      Atomic             Coordinates (Angstroms)
 Number     Number       Type             X           Y           Z
 ---------------------------------------------------------------------
      1          6           0        1.061934    0.230896    0.000000
      2          7           0        0.000000    1.047301    0.000000
      3          7           0       -1.108719    0.299911    0.000000
      4          7           0       -0.720525   -0.916386    0.000000
      5          7           0        0.629556   -1.001029    0.000000
      6          1           0        2.087122    0.554568    0.000000
      7          1           0       -0.060915    2.051483    0.000000
 ---------------------------------------------------------------------

 SCF Done:  E(RM062X) =  -258.249869721     A.U. after    1 cycles

 The electronic state is 1-A'.
 Alpha  occ. eigenvalues --  -14.86534 -14.83584 -14.81777 -14.78507 -10.63484
 Alpha  occ. eigenvalues --   -1.27743  -1.06393  -1.00800  -0.77311  -0.75796
 Alpha  occ. eigenvalues --   -0.68465  -0.59097  -0.57432  -0.46471  -0.40172
 Alpha  occ. eigenvalues --   -0.38219  -0.37675  -0.36935
 Alpha virt. eigenvalues --    0.02161   0.04275   0.06008   0.08795   0.18200
 Alpha virt. eigenvalues --    0.19897   0.21846   0.29095   0.31042   0.33681
 Alpha virt. eigenvalues --    0.40041   0.41630   0.42627   0.45083   0.46802

 Mulliken charges:
               1
     1  C   -0.004178
     2  N   -0.072052
     3  N   -0.068543
     4  N   -0.071598
     5  N   -0.174085
     6  H    0.157089
     7  H    0.233367
 Sum of Mulliken charges =   0.00000

 Dipole moment (field-independent basis, Debye):
    X=              2.4715    Y=              4.7415    Z=              0.0000  Tot=              5.3470
 Quadrupole moment (field-independent basis, Debye-Ang):
   XX=            -28.8187   YY=            -26.3450   ZZ=            -28.4780
   XY=              1.8344   XZ=              0.0000   YZ=              0.0000

  Exact polarizability:  40.519   0.746  39.990   0.000   0.000  20.781
 Approx polarizability:  55.109   0.530  57.634   0.000   0.000  27.855

                      1                      2                      3
                     A"                     A"                     A"
 Frequencies --    604.1892               703.3552               759.8755
 Red. masses --      1.5789                 2.1795                 8.8815
 Frc consts  --      0.3396                 0.6353                 3.0215
 IR Inten    --     88.0513                 4.4643                 7.7098

                      4                      5                      6
                     A"                     A'                     A'
 Frequencies --    900.4764               997.6347              1030.7749
 Red. masses --      1.3832                 4.2317                 6.0723
 Frc consts  --      0.6608                 2.4815                 3.8013
 IR Inten    --     15.8023                 2.8106                 1.2865

                      7                      8                      9
                     A'                     A'                     A'
 Frequencies --   1086.8925              1097.2404              1162.3067
 Red. masses --      3.9450                 3.0583                 2.1092
 Frc consts  --      2.7458                 2.1694                 1.6788
 IR Inten    --     18.5633                30.4915                13.6879

                     10                     11                     12
                     A'                     A'                     A'
 Frequencies --   1296.2180              1356.5784              1486.7932
 Red. masses --      2.4468                 9.5643                 3.3856
 Frc consts  --      2.4222                10.3704                 4.4095
 IR Inten    --      1.2549                17.5737                 9.8345

                     13                     14                     15
                     A'                     A'                     A'
 Frequencies --   1547.6234              3299.2300              3669.2050
 Red. masses --      3.9845                 1.1024                 1.0846
 Frc consts  --      5.6229                 7.0701                 8.6029
 IR Inten    --     17.9822                 2.3623               120.5974

 - Thermochemistry -
 -------------------
 Temperature   298.150 Kelvin.  Pressure   1.00000 Atm.
 Atom     1 has atomic number  6 and mass  12.00000

 Molecular mass:    70.02795 amu.
 Principal axes and moments of inertia in atomic units:
                           1         2         3
     Eigenvalues --   168.98829 171.71635 340.70464
           X            0.87136   0.49064   0.00000
           Y           -0.49064   0.87136   0.00000
           Z            0.00000   0.00000   1.00000
 This molecule is an asymmetric top.
 Rotational symmetry number  1.
 Rotational temperatures (Kelvin)      0.51254     0.50440     0.25422
 Rotational constants (GHZ):          10.67968    10.51001     5.29708
 Zero-point vibrational energy     125598.3 (Joules/Mol)
                                   30.01871 (Kcal/Mol)
 Warning -- explicit consideration of   1 degrees of freedom as
           vibrations may cause significant error
 Vibrational temperatures:    869.29  1011.97  1093.29  1295.58  1435.37
          (Kelvin)           1483.05  1563.79  1578.68  1672.30  1864.97
                             1951.81  2139.16  2226.68  4746.85  5279.16

 Zero-point correction=                           0.047838 (Hartree/Particle)
 Thermal correction to Energy=                    0.051254
 Thermal correction to Enthalpy=                  0.052199
 Thermal correction to Gibbs Free Energy=         0.021783
 Sum of electronic and zero-point Energies=           -258.202032
 Sum of electronic and thermal Energies=              -258.198615
 Sum of electronic and thermal Enthalpies=            -258.197671
 Sum of electronic and thermal Free Energies=         -258.228087

                     E (Thermal)             CV                S
                      KCal/Mol        Cal/Mol-Kelvin    Cal/Mol-Kelvin
 Total                   32.163             10.969             64.015
 Electronic               0.000              0.000              0.000
 Translational            0.889              2.981             38.656
 Rotational               0.889              2.981             23.807
 Vibrational             30.385              5.008              1.552
 Vibration     1          0.963              1.023              0.443

 Normal termination of Gaussian 09 at Tue Nov 26 11:43:08 2013.
