 Gaussian 09, Revision D.01,
 Gaussian 09:  EM64L-G09RevD.01 24-Apr-2013

 ---------------------------------
 #M062X/6-31+G** opt=z-matrix freq
 ---------------------------------

 ------------------------------------------------------------------
 1H-tetrazole CH2N4 casno=288948 state=1 config=1 method=58 basis=4
 ------------------------------------------------------------------
 Symbolic Z-matrix:
 Charge =  0 Multiplicity = 1

 SCF Done:  E(RM062X) =  -258.162399991     A.U. after   13 cycles
 SCF Done:  E(RM062X) =  -258.164835852     A.U. after   12 cycles
 SCF Done:  E(RM062X) =  -258.164845244     A.U. after   11 cycles
 SCF Done:  E(RM062X) =  -258.164876310     A.U. after   11 cycles
 SCF Done:  E(RM062X) =  -258.164885346     A.U. after    9 cycles
 SCF Done:  E(RM062X) =  -258.164690149     A.U. after   11 cycles
 SCF Done:  E(RM062X) =  -258.164885540     A.U. after    8 cycles
 SCF Done:  E(RM062X) =  -258.164885971     A.U. after    9 cycles
 SCF Done:  E(RM062X) =  -258.164805305     A.U. after   10 cycles
 SCF Done:  E(RM062X) =  -258.164885056     A.U. after    8 cycles
 SCF Done:  E(RM062X) =  -258.164885899     A.U. after    4 cycles
 SCF Done:  E(RM062X) =  -258.164886081     A.U. after    8 cycles
 SCF Done:  E(RM062X) =  -258.164884900     A.U. after    8 cycles
 SCF Done:  E(RM062X) =  -258.164885572     A.U. after    6 cycles
 SCF Done:  E(RM062X) =  -258.164885847     A.U. after    5 cycles
 SCF Done:  E(RM062X) =  -258.164885975     A.U. after    5 cycles
 Optimization completed.
    -- Stationary point found.
 Normal termination of Gaussian 09 at Tue Nov 26 11:34:59 2013.

 ----------------------------------------------------------------------
 #N Geom=AllCheck Guess=TCheck SCRF=Check GenChk RM062X/6-31+G(d,p) Fre
 q
 ----------------------------------------------------------------------

 Structure from the checkpoint file:  "/tmp/rdj3/g09-23219/Gau-24410.chk"
 ------------------------------------------------------------------
 1H-tetrazole CH2N4 casno=288948 state=1 config=1 method=58 basis=4
 ------------------------------------------------------------------
 Charge =  0 Multiplicity = 1

                         Standard orientation:
 ---------------------------------------------------------------------
 Center     Atomic      Atomic             Coordinates (Angstroms)
 Number     Number       Type             X           Y           Z
 ---------------------------------------------------------------------
      1          6           0        1.066077    0.231895    0.000000
      2          7           0        0.000000    1.049752    0.000000
      3          7           0       -1.111571    0.301852    0.000000
      4          7           0       -0.721138   -0.919269    0.000000
      5          7           0        0.628534   -1.004009    0.000000
      6          1           0        2.095496    0.553288    0.000000
      7          1           0       -0.062731    2.057060    0.000000
 ---------------------------------------------------------------------

 SCF Done:  E(RM062X) =  -258.164885975     A.U. after    1 cycles

 The electronic state is 1-A'.
 Alpha  occ. eigenvalues --  -14.88697 -14.85573 -14.83669 -14.80552 -10.65106
 Alpha  occ. eigenvalues --   -1.28231  -1.06965  -1.01276  -0.77856  -0.76217
 Alpha  occ. eigenvalues --   -0.68797  -0.59186  -0.57878  -0.46741  -0.40442
 Alpha  occ. eigenvalues --   -0.38641  -0.37922  -0.37205
 Alpha virt. eigenvalues --   -0.00371   0.01129   0.03045   0.03971   0.04559
 Alpha virt. eigenvalues --    0.06935   0.08278   0.10142   0.12405   0.13763
 Alpha virt. eigenvalues --    0.15162   0.17016   0.17829   0.19950   0.21153

 Mulliken charges:
               1
     1  C    0.025740
     2  N   -0.337645
     3  N    0.004216
     4  N   -0.007666
     5  N   -0.254905
     6  H    0.207435
     7  H    0.362824
 Sum of Mulliken charges =   0.00000

 Dipole moment (field-independent basis, Debye):
    X=              2.6274    Y=              4.9384    Z=              0.0000  Tot=              5.5938
 Quadrupole moment (field-independent basis, Debye-Ang):
   XX=            -29.3030   YY=            -26.7756   ZZ=            -28.9691
   XY=              1.9178   XZ=              0.0000   YZ=              0.0000

  Exact polarizability:  42.346   0.367  42.051   0.000   0.000  23.414
 Approx polarizability:  55.325   0.116  58.347   0.000   0.000  29.185

                      1                      2                      3
                     A"                     A"                     A"
 Frequencies --    602.6673               698.2881               749.5158
 Red. masses --      1.7441                 2.0077                 8.7650
 Frc consts  --      0.3732                 0.5768                 2.9011
 IR Inten    --     92.0420                10.0319                 7.9320

                      4                      5                      6
                     A"                     A'                     A'
 Frequencies --    882.6690               999.3767              1031.3548
 Red. masses --      1.3476                 4.3281                 5.8081
 Frc consts  --      0.6186                 2.5468                 3.6400
 IR Inten    --     20.2853                 2.6259                 1.5932

                      7                      8                      9
                     A'                     A'                     A'
 Frequencies --   1103.9691              1116.1074              1166.4855
 Red. masses --      2.9939                 3.8200                 2.0614
 Frc consts  --      2.1498                 2.8036                 1.6526
 IR Inten    --     24.9252                29.0465                10.0314

                     10                     11                     12
                     A'                     A'                     A'
 Frequencies --   1306.8020              1367.9313              1498.9318
 Red. masses --      2.5811                 9.2882                 3.4704
 Frc consts  --      2.5970                10.2402                 4.5940
 IR Inten    --      0.9975                22.4929                10.8555

                     13                     14                     15
                     A'                     A'                     A'
 Frequencies --   1557.9582              3326.9915              3688.0442
 Red. masses --      4.0329                 1.1024                 1.0849
 Frc consts  --      5.7675                 7.1894                 8.6942
 IR Inten    --     19.3422                 3.8301               134.5482

 - Thermochemistry -
 -------------------
 Temperature   298.150 Kelvin.  Pressure   1.00000 Atm.
 Atom     1 has atomic number  6 and mass  12.00000

 Molecular mass:    70.02795 amu.
 Principal axes and moments of inertia in atomic units:
                           1         2         3
     Eigenvalues --   169.93361 172.54583 342.47944
           X            0.85864   0.51257   0.00000
           Y           -0.51257   0.85864   0.00000
           Z            0.00000   0.00000   1.00000
 This molecule is an asymmetric top.
 Rotational symmetry number  1.
 Rotational temperatures (Kelvin)      0.50969     0.50198     0.25290
 Rotational constants (GHZ):          10.62027    10.45949     5.26963
 Zero-point vibrational energy     126188.6 (Joules/Mol)
                                   30.15981 (Kcal/Mol)
 Warning -- explicit consideration of   1 degrees of freedom as
           vibrations may cause significant error
 Vibrational temperatures:    867.10  1004.68  1078.38  1269.96  1437.88
          (Kelvin)           1483.89  1588.36  1605.83  1678.31  1880.19
                             1968.15  2156.63  2241.55  4786.79  5306.27

 Zero-point correction=                           0.048063 (Hartree/Particle)
 Thermal correction to Energy=                    0.051484
 Thermal correction to Enthalpy=                  0.052428
 Thermal correction to Gibbs Free Energy=         0.021998
 Sum of electronic and zero-point Energies=           -258.116823
 Sum of electronic and thermal Energies=              -258.113402
 Sum of electronic and thermal Enthalpies=            -258.112458
 Sum of electronic and thermal Free Energies=         -258.142888

                     E (Thermal)             CV                S
                      KCal/Mol        Cal/Mol-Kelvin    Cal/Mol-Kelvin
 Total                   32.307             10.974             64.045
 Electronic               0.000              0.000              0.000
 Translational            0.889              2.981             38.656
 Rotational               0.889              2.981             23.822
 Vibrational             30.529              5.012              1.567
 Vibration     1          0.961              1.026              0.445

 Normal termination of Gaussian 09 at Tue Nov 26 11:35:18 2013.
