 Gaussian 09, Revision D.01,
 Gaussian 09:  EM64L-G09RevD.01 24-Apr-2013

 --------------------
 #M062X/TZVP opt freq
 --------------------

 -------------------------------------------------------------------
 1H-tetrazole CH2N4 casno=288948 state=1 config=1 method=58 basis=32
 -------------------------------------------------------------------
 Symbolic Z-matrix:
 Charge =  0 Multiplicity = 1

 SCF Done:  E(RM062X) =  -258.233593594     A.U. after   15 cycles
 SCF Done:  E(RM062X) =  -258.235232260     A.U. after   14 cycles
 SCF Done:  E(RM062X) =  -258.235250662     A.U. after   10 cycles
 SCF Done:  E(RM062X) =  -258.235260023     A.U. after    9 cycles
 SCF Done:  E(RM062X) =  -258.235261322     A.U. after    8 cycles
 Optimization completed.
    -- Stationary point found.
 Normal termination of Gaussian 09 at Mon Dec 16 15:52:10 2013.

 ----------------------------------------------------------------
 #N Geom=AllCheck Guess=TCheck SCRF=Check GenChk RM062X/TZVP Freq
 ----------------------------------------------------------------

 Structure from the checkpoint file:  "/tmp/rdj3/g09-18029/Gau-13704.chk"
 -------------------------------------------------------------------
 1H-tetrazole CH2N4 casno=288948 state=1 config=1 method=58 basis=32
 -------------------------------------------------------------------
 Charge =  0 Multiplicity = 1

                         Standard orientation:
 ---------------------------------------------------------------------
 Center     Atomic      Atomic             Coordinates (Angstroms)
 Number     Number       Type             X           Y           Z
 ---------------------------------------------------------------------
      1          6           0        1.062985    0.231052    0.000000
      2          7           0        0.000000    1.048368    0.000000
      3          7           0       -1.109807    0.298524    0.000000
      4          7           0       -0.721068   -0.916838    0.000000
      5          7           0        0.630368   -1.000367    0.000000
      6          1           0        2.089733    0.552278    0.000000
      7          1           0       -0.064098    2.053602    0.000000
 ---------------------------------------------------------------------

 SCF Done:  E(RM062X) =  -258.235261322     A.U. after    1 cycles

 The electronic state is 1-A'.
 Alpha  occ. eigenvalues --  -14.87042 -14.84096 -14.82176 -14.78957 -10.63895
 Alpha  occ. eigenvalues --   -1.28485  -1.06949  -1.01481  -0.77800  -0.76319
 Alpha  occ. eigenvalues --   -0.68970  -0.59291  -0.57935  -0.46807  -0.40444
 Alpha  occ. eigenvalues --   -0.38564  -0.38092  -0.37201
 Alpha virt. eigenvalues --    0.01667   0.03907   0.05636   0.09556   0.14420
 Alpha virt. eigenvalues --    0.15513   0.20807   0.23213   0.27427   0.30466
 Alpha virt. eigenvalues --    0.32081   0.35924   0.37504   0.38554   0.40087

 Mulliken charges:
               1
     1  C   -0.041298
     2  N   -0.161299
     3  N   -0.065580
     4  N   -0.074509
     5  N   -0.108898
     6  H    0.158625
     7  H    0.292960
 Sum of Mulliken charges =   0.00000

 Dipole moment (field-independent basis, Debye):
    X=              2.5833    Y=              4.9252    Z=              0.0000  Tot=              5.5616
 Quadrupole moment (field-independent basis, Debye-Ang):
   XX=            -29.2267   YY=            -26.7781   ZZ=            -28.6646
   XY=              1.8959   XZ=              0.0000   YZ=              0.0000

  Exact polarizability:  40.423   0.594  40.288   0.000   0.000  21.859
 Approx polarizability:  53.467   0.301  56.669   0.000   0.000  27.278

                      1                      2                      3
                     A"                     A"                     A"
 Frequencies --    594.1520               701.5499               750.3208
 Red. masses --      1.9730                 1.8703                 7.7597
 Frc consts  --      0.4104                 0.5424                 2.5739
 IR Inten    --     78.7457                15.0509                 9.7044

                      4                      5                      6
                     A"                     A'                     A'
 Frequencies --    877.5478               997.8157              1031.3551
 Red. masses --      1.3205                 4.5440                 6.9580
 Frc consts  --      0.5991                 2.6655                 4.3607
 IR Inten    --     21.4831                 3.2924                 0.3532

                      7                      8                      9
                     A'                     A'                     A'
 Frequencies --   1079.8324              1098.7048              1165.7005
 Red. masses --      4.1362                 3.1021                 2.0443
 Frc consts  --      2.8416                 2.2064                 1.6367
 IR Inten    --     20.4267                32.2939                14.5593

                     10                     11                     12
                     A'                     A'                     A'
 Frequencies --   1300.4599              1355.5602              1488.4845
 Red. masses --      2.3455                 9.2593                 3.3096
 Frc consts  --      2.3372                10.0246                 4.3203
 IR Inten    --      1.8795                22.0006                10.7127

                     13                     14                     15
                     A'                     A'                     A'
 Frequencies --   1552.9352              3308.0051              3673.8076
 Red. masses --      3.8202                 1.1027                 1.0846
 Frc consts  --      5.4280                 7.1093                 8.6249
 IR Inten    --     19.1949                 4.1530               131.3969

 - Thermochemistry -
 -------------------
 Temperature   298.150 Kelvin.  Pressure   1.00000 Atm.
 Atom     1 has atomic number  6 and mass  12.00000

 Molecular mass:    70.02795 amu.
 Principal axes and moments of inertia in atomic units:
                           1         2         3
     Eigenvalues --   169.17202 171.95119 341.12321
           X            0.89682   0.44240   0.00000
           Y           -0.44240   0.89682   0.00000
           Z            0.00000   0.00000   1.00000
 This molecule is an asymmetric top.
 Rotational symmetry number  1.
 Rotational temperatures (Kelvin)      0.51199     0.50371     0.25391
 Rotational constants (GHZ):          10.66808    10.49566     5.29058
 Zero-point vibrational energy     125465.7 (Joules/Mol)
                                   29.98703 (Kcal/Mol)
 Warning -- explicit consideration of   1 degrees of freedom as
           vibrations may cause significant error
 Vibrational temperatures:    854.85  1009.37  1079.54  1262.59  1435.63
          (Kelvin)           1483.89  1553.64  1580.79  1677.18  1871.07
                             1950.35  2141.59  2234.32  4759.48  5285.78

 Zero-point correction=                           0.047787 (Hartree/Particle)
 Thermal correction to Energy=                    0.051218
 Thermal correction to Enthalpy=                  0.052162
 Thermal correction to Gibbs Free Energy=         0.021725
 Sum of electronic and zero-point Energies=           -258.187474
 Sum of electronic and thermal Energies=              -258.184043
 Sum of electronic and thermal Enthalpies=            -258.183099
 Sum of electronic and thermal Free Energies=         -258.213536

                     E (Thermal)             CV                S
                      KCal/Mol        Cal/Mol-Kelvin    Cal/Mol-Kelvin
 Total                   32.140             11.042             64.060
 Electronic               0.000              0.000              0.000
 Translational            0.889              2.981             38.656
 Rotational               0.889              2.981             23.810
 Vibrational             30.362              5.080              1.594
 Vibration     1          0.952              1.044              0.460

 Optimization completed.
    -- Stationary point found.
 Normal termination of Gaussian 09 at Mon Dec 16 15:52:25 2013.
