 Gaussian 09, Revision D.01,
 Gaussian 09:  EM64L-G09RevD.01 24-Apr-2013

 ---------------------
 #M062X/3-21G opt freq
 ---------------------

 ------------------------------------------------------------------
 1H-tetrazole CH2N4 casno=288948 state=1 config=1 method=58 basis=2
 ------------------------------------------------------------------
 Symbolic Z-matrix:
 Charge =  0 Multiplicity = 1

 SCF Done:  E(RM062X) =  -256.653628083     A.U. after   16 cycles
 SCF Done:  E(RM062X) =  -256.671238038     A.U. after   17 cycles
 SCF Done:  E(RM062X) =  -256.672076819     A.U. after   16 cycles
 SCF Done:  E(RM062X) =  -256.672454439     A.U. after   15 cycles
 SCF Done:  E(RM062X) =  -256.672511790     A.U. after   10 cycles
 SCF Done:  E(RM062X) =  -256.672523617     A.U. after    9 cycles
 SCF Done:  E(RM062X) =  -256.672528000     A.U. after   10 cycles
 SCF Done:  E(RM062X) =  -256.672529647     A.U. after   10 cycles
 Optimization completed.
    -- Stationary point found.
 Normal termination of Gaussian 09 at Mon Dec 16 15:51:45 2013.

 -----------------------------------------------------------------
 #N Geom=AllCheck Guess=TCheck SCRF=Check GenChk RM062X/3-21G Freq
 -----------------------------------------------------------------

 Structure from the checkpoint file:  "/tmp/rdj3/g09-18029/Gau-12888.chk"
 ------------------------------------------------------------------
 1H-tetrazole CH2N4 casno=288948 state=1 config=1 method=58 basis=2
 ------------------------------------------------------------------
 Charge =  0 Multiplicity = 1

                         Standard orientation:
 ---------------------------------------------------------------------
 Center     Atomic      Atomic             Coordinates (Angstroms)
 Number     Number       Type             X           Y           Z
 ---------------------------------------------------------------------
      1          6           0        1.078956    0.256677    0.000000
      2          7           0        0.000000    1.080651    0.000000
      3          7           0       -1.162935    0.288910    0.000000
      4          7           0       -0.742416   -0.962812    0.000000
      5          7           0        0.691170   -1.010210    0.000000
      6          1           0        2.097995    0.593333    0.000000
      7          1           0       -0.072464    2.090831    0.000000
 ---------------------------------------------------------------------

 SCF Done:  E(RM062X) =  -256.672529647     A.U. after    1 cycles

 The electronic state is 1-A'.
 Alpha  occ. eigenvalues --  -14.81690 -14.79684 -14.77704 -14.74079 -10.60584
 Alpha  occ. eigenvalues --   -1.27217  -1.05943  -1.02519  -0.76672  -0.75557
 Alpha  occ. eigenvalues --   -0.68437  -0.57140  -0.56734  -0.44850  -0.39116
 Alpha  occ. eigenvalues --   -0.37518  -0.37298  -0.36446
 Alpha virt. eigenvalues --    0.01654   0.05984   0.12227   0.14986   0.21725
 Alpha virt. eigenvalues --    0.24798   0.31655   0.40255   0.45520   0.72696
 Alpha virt. eigenvalues --    0.74647   0.85632   0.88739   0.98594   1.08349

 Mulliken charges:
               1
     1  C    0.329639
     2  N   -0.567412
     3  N   -0.022831
     4  N   -0.075907
     5  N   -0.341698
     6  H    0.290188
     7  H    0.388021
 Sum of Mulliken charges =   0.00000

 Dipole moment (field-independent basis, Debye):
    X=              2.5359    Y=              5.0074    Z=              0.0000  Tot=              5.6129
 Quadrupole moment (field-independent basis, Debye-Ang):
   XX=            -29.2059   YY=            -26.7361   ZZ=            -28.8012
   XY=              2.0544   XZ=              0.0000   YZ=              0.0000

  Exact polarizability:  34.221   1.183  34.132   0.000   0.000  11.163
 Approx polarizability:  51.224  -0.188  56.991   0.000   0.000  11.967

                      1                      2                      3
                     A"                     A"                     A"
 Frequencies --    658.5389               689.3750               701.8995
 Red. masses --      3.4414                 1.2643                 7.6178
 Frc consts  --      0.8793                 0.3540                 2.2112
 IR Inten    --     75.5016                87.0909                16.1158

                      4                      5                      6
                     A'                     A'                     A"
 Frequencies --    829.4687               922.8632               955.1390
 Red. masses --     10.3618                 5.6200                 1.3855
 Frc consts  --      4.2003                 2.8201                 0.7447
 IR Inten    --      9.9831                15.9631                13.1427

                      7                      8                      9
                     A'                     A'                     A'
 Frequencies --   1000.9785              1027.9427              1125.5524
 Red. masses --      5.1857                 6.3450                 3.4483
 Frc consts  --      3.0613                 3.9502                 2.5739
 IR Inten    --      8.9021                 8.9719                 7.3542

                     10                     11                     12
                     A'                     A'                     A'
 Frequencies --   1177.0812              1243.5938              1393.0437
 Red. masses --      2.7149                 2.2636                 2.7364
 Frc consts  --      2.2162                 2.0625                 3.1286
 IR Inten    --     11.0931                 6.4921                 6.0949

                     13                     14                     15
                     A'                     A'                     A'
 Frequencies --   1467.5315              3346.1483              3620.2697
 Red. masses --      2.3413                 1.1007                 1.0851
 Frc consts  --      2.9708                 7.2615                 8.3789
 IR Inten    --     46.2792                 5.8766               150.1245

 - Thermochemistry -
 -------------------
 Temperature   298.150 Kelvin.  Pressure   1.00000 Atm.
 Atom     1 has atomic number  6 and mass  12.00000

 Molecular mass:    70.02795 amu.
 Principal axes and moments of inertia in atomic units:
                           1         2         3
     Eigenvalues --   179.38308 184.65780 364.04088
           X            0.99644   0.08431   0.00000
           Y           -0.08431   0.99644   0.00000
           Z            0.00000   0.00000   1.00000
 This molecule is an asymmetric top.
 Rotational symmetry number  1.
 Rotational temperatures (Kelvin)      0.48284     0.46905     0.23792
 Rotational constants (GHZ):          10.06082     9.77344     4.95752
 Zero-point vibrational energy     120580.1 (Joules/Mol)
                                   28.81935 (Kcal/Mol)
 Vibrational temperatures:    947.49   991.86  1009.88  1193.42  1327.79
          (Kelvin)           1374.23  1440.18  1478.98  1619.42  1693.56
                             1789.25  2004.28  2111.45  4814.36  5208.75

 Zero-point correction=                           0.045927 (Hartree/Particle)
 Thermal correction to Energy=                    0.049420
 Thermal correction to Enthalpy=                  0.050364
 Thermal correction to Gibbs Free Energy=         0.019761
 Sum of electronic and zero-point Energies=           -256.626603
 Sum of electronic and thermal Energies=              -256.623110
 Sum of electronic and thermal Enthalpies=            -256.622165
 Sum of electronic and thermal Free Energies=         -256.652769

                     E (Thermal)             CV                S
                      KCal/Mol        Cal/Mol-Kelvin    Cal/Mol-Kelvin
 Total                   31.012             11.623             64.411
 Electronic               0.000              0.000              0.000
 Translational            0.889              2.981             38.656
 Rotational               0.889              2.981             24.004
 Vibrational             29.234              5.661              1.751

 Optimization completed.
    -- Stationary point found.
 Normal termination of Gaussian 09 at Mon Dec 16 15:51:50 2013.
