 Gaussian 09, Revision D.01,
 Gaussian 09:  EM64L-G09RevD.01 24-Apr-2013

 --------------------------------
 #M062X/6-31G** opt=z-matrix freq
 --------------------------------

 ------------------------------------------------------------------
 1H-tetrazole CH2N4 casno=288948 state=1 config=1 method=58 basis=3
 ------------------------------------------------------------------
 Symbolic Z-matrix:
 Charge =  0 Multiplicity = 1

 SCF Done:  E(RM062X) =  -258.152948529     A.U. after   16 cycles
 SCF Done:  E(RM062X) =  -258.155351476     A.U. after   14 cycles
 SCF Done:  E(RM062X) =  -258.155358991     A.U. after   13 cycles
 SCF Done:  E(RM062X) =  -258.155383430     A.U. after   13 cycles
 SCF Done:  E(RM062X) =  -258.155392899     A.U. after    9 cycles
 SCF Done:  E(RM062X) =  -258.155204141     A.U. after   13 cycles
 SCF Done:  E(RM062X) =  -258.155393291     A.U. after   11 cycles
 SCF Done:  E(RM062X) =  -258.155393603     A.U. after    8 cycles
 SCF Done:  E(RM062X) =  -258.155393663     A.U. after    7 cycles
 SCF Done:  E(RM062X) =  -258.155393681     A.U. after    7 cycles
 SCF Done:  E(RM062X) =  -258.155393629     A.U. after   11 cycles
 Optimization completed.
    -- Stationary point found.
 Normal termination of Gaussian 09 at Tue Nov 26 11:33:47 2013.

 ----------------------------------------------------------------------
 #N Geom=AllCheck Guess=TCheck SCRF=Check GenChk RM062X/6-31G(d,p) Freq
 ----------------------------------------------------------------------

 Structure from the checkpoint file:  "/tmp/rdj3/g09-23219/Gau-23365.chk"
 ------------------------------------------------------------------
 1H-tetrazole CH2N4 casno=288948 state=1 config=1 method=58 basis=3
 ------------------------------------------------------------------
 Charge =  0 Multiplicity = 1

                         Standard orientation:
 ---------------------------------------------------------------------
 Center     Atomic      Atomic             Coordinates (Angstroms)
 Number     Number       Type             X           Y           Z
 ---------------------------------------------------------------------
      1          6           0        1.065191    0.231546    0.000000
      2          7           0        0.000000    1.049527    0.000000
      3          7           0       -1.111922    0.301966    0.000000
      4          7           0       -0.720919   -0.919036    0.000000
      5          7           0        0.629541   -1.004030    0.000000
      6          1           0        2.093640    0.555576    0.000000
      7          1           0       -0.061692    2.056161    0.000000
 ---------------------------------------------------------------------

 SCF Done:  E(RM062X) =  -258.155393629     A.U. after    1 cycles

 The electronic state is 1-A'.
 Alpha  occ. eigenvalues --  -14.87759 -14.84434 -14.82498 -14.79345 -10.64254
 Alpha  occ. eigenvalues --   -1.27114  -1.05943  -1.00259  -0.76924  -0.75267
 Alpha  occ. eigenvalues --   -0.67937  -0.58275  -0.56997  -0.45777  -0.39491
 Alpha  occ. eigenvalues --   -0.37628  -0.36998  -0.36195
 Alpha virt. eigenvalues --    0.02924   0.07080   0.10334   0.15803   0.24045
 Alpha virt. eigenvalues --    0.24661   0.33917   0.37007   0.48286   0.56853
 Alpha virt. eigenvalues --    0.57161   0.64991   0.65592   0.70875   0.72378

 Mulliken charges:
               1
     1  C    0.309773
     2  N   -0.388003
     3  N   -0.042997
     4  N   -0.080127
     5  N   -0.320774
     6  H    0.191546
     7  H    0.330582
 Sum of Mulliken charges =   0.00000

 Dipole moment (field-independent basis, Debye):
    X=              2.5122    Y=              4.8103    Z=              0.0000  Tot=              5.4268
 Quadrupole moment (field-independent basis, Debye-Ang):
   XX=            -28.5352   YY=            -26.0121   ZZ=            -28.3184
   XY=              1.7986   XZ=              0.0000   YZ=              0.0000

  Exact polarizability:  36.889   0.938  36.395   0.000   0.000  15.593
 Approx polarizability:  51.613   0.403  54.516   0.000   0.000  20.905

                      1                      2                      3
                     A"                     A"                     A"
 Frequencies --    608.8316               703.2337               756.0452
 Red. masses --      1.6913                 2.0648                 8.5694
 Frc consts  --      0.3694                 0.6016                 2.8860
 IR Inten    --     97.7225                 8.6550                 8.2514

                      4                      5                      6
                     A"                     A'                     A'
 Frequencies --    886.1247              1001.3530              1033.3519
 Red. masses --      1.3597                 4.2787                 5.4699
 Frc consts  --      0.6291                 2.5277                 3.4413
 IR Inten    --     16.3540                 2.7715                 2.0960

                      7                      8                      9
                     A'                     A'                     A'
 Frequencies --   1104.9808              1117.4595              1170.1146
 Red. masses --      2.9406                 3.9134                 2.0768
 Frc consts  --      2.1154                 2.8792                 1.6754
 IR Inten    --     27.0432                25.4928                10.5298

                     10                     11                     12
                     A'                     A'                     A'
 Frequencies --   1308.9131              1371.6138              1504.5004
 Red. masses --      2.5962                 9.3315                 3.4898
 Frc consts  --      2.6207                10.3434                 4.6541
 IR Inten    --      1.1147                21.7296                10.2544

                     13                     14                     15
                     A'                     A'                     A'
 Frequencies --   1562.0914              3326.1977              3695.3765
 Red. masses --      4.1253                 1.1021                 1.0846
 Frc consts  --      5.9309                 7.1842                 8.7265
 IR Inten    --     18.8675                 2.5947               124.6643

 - Thermochemistry -
 -------------------
 Temperature   298.150 Kelvin.  Pressure   1.00000 Atm.
 Atom     1 has atomic number  6 and mass  12.00000

 Molecular mass:    70.02795 amu.
 Principal axes and moments of inertia in atomic units:
                           1         2         3
     Eigenvalues --   169.81534 172.59062 342.40596
           X            0.85348   0.52112   0.00000
           Y           -0.52112   0.85348   0.00000
           Z            0.00000   0.00000   1.00000
 This molecule is an asymmetric top.
 Rotational symmetry number  1.
 Rotational temperatures (Kelvin)      0.51005     0.50185     0.25296
 Rotational constants (GHZ):          10.62767    10.45677     5.27076
 Zero-point vibrational energy     126506.2 (Joules/Mol)
                                   30.23571 (Kcal/Mol)
 Warning -- explicit consideration of   1 degrees of freedom as
           vibrations may cause significant error
 Vibrational temperatures:    875.97  1011.80  1087.78  1274.93  1440.72
          (Kelvin)           1486.76  1589.82  1607.77  1683.53  1883.23
                             1973.44  2164.64  2247.50  4785.65  5316.82

 Zero-point correction=                           0.048184 (Hartree/Particle)
 Thermal correction to Energy=                    0.051595
 Thermal correction to Enthalpy=                  0.052539
 Thermal correction to Gibbs Free Energy=         0.022123
 Sum of electronic and zero-point Energies=           -258.107210
 Sum of electronic and thermal Energies=              -258.103799
 Sum of electronic and thermal Enthalpies=            -258.102854
 Sum of electronic and thermal Free Energies=         -258.133270

                     E (Thermal)             CV                S
                      KCal/Mol        Cal/Mol-Kelvin    Cal/Mol-Kelvin
 Total                   32.376             10.921             64.016
 Electronic               0.000              0.000              0.000
 Translational            0.889              2.981             38.656
 Rotational               0.889              2.981             23.821
 Vibrational             30.599              4.960              1.539
 Vibration     1          0.968              1.013              0.435

 Normal termination of Gaussian 09 at Tue Nov 26 11:33:59 2013.
