 Gaussian 09, Revision D.01,
 Gaussian 09:  EM64L-G09RevD.01 24-Apr-2013

 ---------------------------------
 #M062X/6-311G** opt=z-matrix freq
 ---------------------------------

 -------------------------------------------------------------------
 1H-tetrazole CH2N4 casno=288948 state=1 config=1 method=58 basis=21
 -------------------------------------------------------------------
 Symbolic Z-matrix:
 Charge =  0 Multiplicity = 1

 SCF Done:  E(RM062X) =  -258.215781739     A.U. after   15 cycles
 SCF Done:  E(RM062X) =  -258.217669462     A.U. after   13 cycles
 SCF Done:  E(RM062X) =  -258.217659722     A.U. after   13 cycles
 SCF Done:  E(RM062X) =  -258.217686208     A.U. after   10 cycles
 SCF Done:  E(RM062X) =  -258.217686502     A.U. after   12 cycles
 SCF Done:  E(RM062X) =  -258.217689995     A.U. after   10 cycles
 SCF Done:  E(RM062X) =  -258.217695583     A.U. after    9 cycles
 SCF Done:  E(RM062X) =  -258.217692634     A.U. after   11 cycles
 SCF Done:  E(RM062X) =  -258.217696552     A.U. after   10 cycles
 SCF Done:  E(RM062X) =  -258.217696429     A.U. after   10 cycles
 SCF Done:  E(RM062X) =  -258.217692591     A.U. after    9 cycles
 SCF Done:  E(RM062X) =  -258.209809455     A.U. after   14 cycles
 SCF Done:  E(RM062X) =  -258.215615134     A.U. after   15 cycles
 SCF Done:  E(RM062X) =  -258.212791994     A.U. after   15 cycles
 SCF Done:  E(RM062X) =  -258.216440285     A.U. after   15 cycles
 SCF Done:  E(RM062X) =  -258.217696667     A.U. after   10 cycles
 SCF Done:  E(RM062X) =  -258.217685179     A.U. after   12 cycles
 SCF Done:  E(RM062X) =  -258.217696396     A.U. after   10 cycles
 SCF Done:  E(RM062X) =  -258.217696639     A.U. after    1 cycles
 Optimization completed.
    -- Stationary point found.
 Normal termination of Gaussian 09 at Tue Nov 26 11:30:47 2013.

 ----------------------------------------------------------------------
 #N Geom=AllCheck Guess=TCheck SCRF=Check GenChk RM062X/6-311G(d,p) Fre
 q
 ----------------------------------------------------------------------

 Structure from the checkpoint file:  "/tmp/rdj3/g09-23219/Gau-18131.chk"
 -------------------------------------------------------------------
 1H-tetrazole CH2N4 casno=288948 state=1 config=1 method=58 basis=21
 -------------------------------------------------------------------
 Charge =  0 Multiplicity = 1

                         Standard orientation:
 ---------------------------------------------------------------------
 Center     Atomic      Atomic             Coordinates (Angstroms)
 Number     Number       Type             X           Y           Z
 ---------------------------------------------------------------------
      1          6           0        1.064108    0.229777    0.000000
      2          7           0        0.000000    1.049020    0.000000
      3          7           0       -1.110678    0.300292    0.000000
      4          7           0       -0.721211   -0.916536    0.000000
      5          7           0        0.630012   -1.002264    0.000000
      6          1           0        2.091078    0.552909    0.000000
      7          1           0       -0.062590    2.054846    0.000000
 ---------------------------------------------------------------------

 SCF Done:  E(RM062X) =  -258.217696639     A.U. after    1 cycles

 The electronic state is 1-A'.
 Alpha  occ. eigenvalues --  -14.86424 -14.83285 -14.81341 -14.78177 -10.63555
 Alpha  occ. eigenvalues --   -1.27840  -1.06422  -1.00905  -0.77343  -0.75789
 Alpha  occ. eigenvalues --   -0.68511  -0.58862  -0.57508  -0.46352  -0.40010
 Alpha  occ. eigenvalues --   -0.38130  -0.37608  -0.36735
 Alpha virt. eigenvalues --    0.02310   0.04960   0.06416   0.09351   0.21677
 Alpha virt. eigenvalues --    0.22685   0.25377   0.32610   0.37558   0.42460
 Alpha virt. eigenvalues --    0.46473   0.47662   0.53753   0.59874   0.60280

 Mulliken charges:
               1
     1  C    0.245328
     2  N   -0.330543
     3  N   -0.021832
     4  N   -0.083045
     5  N   -0.259393
     6  H    0.167865
     7  H    0.281619
 Sum of Mulliken charges =   0.00000

 Dipole moment (field-independent basis, Debye):
    X=              2.5219    Y=              4.8218    Z=              0.0000  Tot=              5.4415
 Quadrupole moment (field-independent basis, Debye-Ang):
   XX=            -28.8252   YY=            -26.4474   ZZ=            -28.4546
   XY=              1.8222   XZ=              0.0000   YZ=              0.0000

  Exact polarizability:  37.873   0.866  37.553   0.000   0.000  17.550
 Approx polarizability:  52.274   0.504  55.283   0.000   0.000  22.979

                      1                      2                      3
                     A"                     A"                     A"
 Frequencies --    622.5491               705.6826               756.9171
 Red. masses --      1.8000                 1.9234                 8.1236
 Frc consts  --      0.4110                 0.5644                 2.7422
 IR Inten    --     90.7258                11.0355                 9.2181

                      4                      5                      6
                     A"                     A'                     A'
 Frequencies --    896.3638               999.7100              1034.0774
 Red. masses --      1.3716                 4.1291                 6.2496
 Frc consts  --      0.6493                 2.4314                 3.9374
 IR Inten    --     16.6856                 3.2715                 1.0517

                      7                      8                      9
                     A'                     A'                     A'
 Frequencies --   1090.4095              1104.1131              1164.7856
 Red. masses --      3.6547                 3.1362                 2.1712
 Frc consts  --      2.5602                 2.2526                 1.7356
 IR Inten    --     21.7255                30.1797                13.3238

                     10                     11                     12
                     A'                     A'                     A'
 Frequencies --   1301.0202              1365.3039              1493.6102
 Red. masses --      2.5187                 8.5875                 3.4299
 Frc consts  --      2.5119                 9.4314                 4.5082
 IR Inten    --      0.9546                21.9428                10.0782

                     13                     14                     15
                     A'                     A'                     A'
 Frequencies --   1556.8205              3299.4472              3684.1665
 Red. masses --      3.9217                 1.1026                 1.0845
 Frc consts  --      5.6002                 7.0724                 8.6728
 IR Inten    --     17.9021                 3.3738               128.6275

 - Thermochemistry -
 -------------------
 Temperature   298.150 Kelvin.  Pressure   1.00000 Atm.
 Atom     1 has atomic number  6 and mass  12.00000

 Molecular mass:    70.02795 amu.
 Principal axes and moments of inertia in atomic units:
                           1         2         3
     Eigenvalues --   169.28155 172.32624 341.60779
           X            0.87509   0.48396   0.00000
           Y           -0.48396   0.87509   0.00000
           Z            0.00000   0.00000   1.00000
 This molecule is an asymmetric top.
 Rotational symmetry number  1.
 Rotational temperatures (Kelvin)      0.51166     0.50262     0.25355
 Rotational constants (GHZ):          10.66118    10.47282     5.28308
 Zero-point vibrational energy     126056.4 (Joules/Mol)
                                   30.12819 (Kcal/Mol)
 Vibrational temperatures:    895.71  1015.32  1089.03  1289.67  1438.36
          (Kelvin)           1487.80  1568.85  1588.57  1675.86  1871.88
                             1964.37  2148.97  2239.91  4747.16  5300.69

 Zero-point correction=                           0.048012 (Hartree/Particle)
 Thermal correction to Energy=                    0.051417
 Thermal correction to Enthalpy=                  0.052361
 Thermal correction to Gibbs Free Energy=         0.021959
 Sum of electronic and zero-point Energies=           -258.169684
 Sum of electronic and thermal Energies=              -258.166279
 Sum of electronic and thermal Enthalpies=            -258.165335
 Sum of electronic and thermal Free Energies=         -258.195738

                     E (Thermal)             CV                S
                      KCal/Mol        Cal/Mol-Kelvin    Cal/Mol-Kelvin
 Total                   32.265             10.911             63.988
 Electronic               0.000              0.000              0.000
 Translational            0.889              2.981             38.656
 Rotational               0.889              2.981             23.814
 Vibrational             30.487              4.949              1.517

 Normal termination of Gaussian 09 at Tue Nov 26 11:31:05 2013.
