 Gaussian 09, Revision D.01,
 Gaussian 09:  EM64L-G09RevD.01 24-Apr-2013

 --------------------------------------------
 #B2PLYP=FULL/6-31G opt=z-matrix freq density
 --------------------------------------------

 ------------------------------------------------------------------
 1H-tetrazole CH2N4 casno=288948 state=1 config=1 method=59 basis=9
 ------------------------------------------------------------------
 Symbolic Z-matrix:
 Charge =  0 Multiplicity = 1

 SCF Done:  E(RB2PLYP) =  -257.605513748     A.U. after   14 cycles
 E2(B2PLYP) =    -0.1832980332D+00 E(B2PLYP) =    -0.25778881178108D+03
 SCF Done:  E(RB2PLYP) =  -257.611564103     A.U. after   14 cycles
 E2(B2PLYP) =    -0.1940336198D+00 E(B2PLYP) =    -0.25780559772306D+03
 SCF Done:  E(RB2PLYP) =  -257.609490348     A.U. after   13 cycles
 E2(B2PLYP) =    -0.1969260842D+00 E(B2PLYP) =    -0.25780641643226D+03
 SCF Done:  E(RB2PLYP) =  -257.608847153     A.U. after   13 cycles
 E2(B2PLYP) =    -0.1967372717D+00 E(B2PLYP) =    -0.25780558442453D+03
 SCF Done:  E(RB2PLYP) =  -257.609220692     A.U. after   12 cycles
 E2(B2PLYP) =    -0.1974979995D+00 E(B2PLYP) =    -0.25780671869192D+03
 SCF Done:  E(RB2PLYP) =  -257.609022785     A.U. after   13 cycles
 E2(B2PLYP) =    -0.1971897507D+00 E(B2PLYP) =    -0.25780621253518D+03
 SCF Done:  E(RB2PLYP) =  -257.609207081     A.U. after   11 cycles
 E2(B2PLYP) =    -0.1975373124D+00 E(B2PLYP) =    -0.25780674439327D+03
 SCF Done:  E(RB2PLYP) =  -257.609748573     A.U. after   12 cycles
 E2(B2PLYP) =    -0.1968568906D+00 E(B2PLYP) =    -0.25780660546309D+03
 SCF Done:  E(RB2PLYP) =  -257.609207673     A.U. after   11 cycles
 E2(B2PLYP) =    -0.1975403071D+00 E(B2PLYP) =    -0.25780674798006D+03
 SCF Done:  E(RB2PLYP) =  -257.609258405     A.U. after    9 cycles
 E2(B2PLYP) =    -0.1974910300D+00 E(B2PLYP) =    -0.25780674943469D+03
 SCF Done:  E(RB2PLYP) =  -257.609796394     A.U. after   12 cycles
 E2(B2PLYP) =    -0.1969045469D+00 E(B2PLYP) =    -0.25780670094080D+03
 SCF Done:  E(RB2PLYP) =  -257.609284706     A.U. after    9 cycles
 E2(B2PLYP) =    -0.1974652444D+00 E(B2PLYP) =    -0.25780674995019D+03
 SCF Done:  E(RB2PLYP) =  -257.609292504     A.U. after    9 cycles
 E2(B2PLYP) =    -0.1974575047D+00 E(B2PLYP) =    -0.25780675000900D+03
 Optimization completed.
    -- Stationary point found.
 Normal termination of Gaussian 09 at Wed Nov 27 07:38:05 2013.

 ----------------------------------------------------------------------
 #N Geom=AllCheck Guess=TCheck SCRF=Check GenChk RB2PLYP-Full/6-31G Fre
 q
 ----------------------------------------------------------------------

 Structure from the checkpoint file:  "/tmp/rdj3/g09-23219/Gau-32592.chk"
 ------------------------------------------------------------------
 1H-tetrazole CH2N4 casno=288948 state=1 config=1 method=59 basis=9
 ------------------------------------------------------------------
 Charge =  0 Multiplicity = 1

                         Standard orientation:
 ---------------------------------------------------------------------
 Center     Atomic      Atomic             Coordinates (Angstroms)
 Number     Number       Type             X           Y           Z
 ---------------------------------------------------------------------
      1          6           0        1.086676    0.257205    0.000000
      2          7           0        0.000000    1.078370    0.000000
      3          7           0       -1.159399    0.297601    0.000000
      4          7           0       -0.742010   -0.961055    0.000000
      5          7           0        0.678172   -1.016625    0.000000
      6          1           0        2.109487    0.585704    0.000000
      7          1           0       -0.066891    2.083027    0.000000
 ---------------------------------------------------------------------

 SCF Done:  E(RB2PLYP) =  -257.609292504     A.U. after    1 cycles
 E2(B2PLYP) =    -0.1974575047D+00 E(B2PLYP) =    -0.25780675000908D+03
 E2(B2PLYP) =    -0.1974575047D+00 E(B2PLYP) =    -0.25780675000908D+03

 The electronic state is 1-A'.
 Alpha  occ. eigenvalues --  -14.97878 -14.96786 -14.94824 -14.91386 -10.74840
 Alpha  occ. eigenvalues --   -1.30315  -1.08734  -1.04707  -0.78590  -0.76931
 Alpha  occ. eigenvalues --   -0.69389  -0.58086  -0.57337  -0.45920  -0.39277
 Alpha  occ. eigenvalues --   -0.38445  -0.37712  -0.37112
 Alpha virt. eigenvalues --    0.01297   0.05736   0.10433   0.14855   0.21635
 Alpha virt. eigenvalues --    0.24187   0.30701   0.36794   0.45444   0.60064
 Alpha virt. eigenvalues --    0.62486   0.69893   0.74110   0.74959   0.76442

 Mulliken charges:
               1
     1  C    0.295426
     2  N   -0.554235
     3  N    0.018241
     4  N   -0.090815
     5  N   -0.283530
     6  H    0.231865
     7  H    0.383049
 Sum of Mulliken charges =   0.00000

 Dipole moment (field-independent basis, Debye):
    X=              2.7088    Y=              5.1583    Z=              0.0000  Tot=              5.8263
 Quadrupole moment (field-independent basis, Debye-Ang):
   XX=            -30.0265   YY=            -27.5414   ZZ=            -28.8934
   XY=              2.0873   XZ=              0.0000   YZ=              0.0000

  Exact polarizability:  38.069   1.187  37.648   0.000   0.000  13.805
 Approx polarizability:  52.425  -0.233  57.028   0.000   0.000  14.589

                      1                      2                      3
                     A"                     A"                     A"
 Frequencies --    653.5758               700.6326               709.7724
 Red. masses --      4.5165                 5.5710                 1.2483
 Frc consts  --      1.1367                 1.6113                 0.3705
 IR Inten    --     35.6609                 7.5518               125.9685

                      4                      5                      6
                     A'                     A"                     A'
 Frequencies --    792.5304               866.6864               896.4059
 Red. masses --      9.8338                 1.3653                 6.3701
 Frc consts  --      3.6392                 0.6042                 3.0158
 IR Inten    --      9.4809                20.3197                18.2223

                      7                      8                      9
                     A'                     A'                     A'
 Frequencies --    994.0920              1022.6316              1111.4772
 Red. masses --      6.2012                 5.4833                 5.7493
 Frc consts  --      3.6106                 3.3785                 4.1847
 IR Inten    --      4.4780                10.8703                 8.0956

                     10                     11                     12
                     A'                     A'                     A'
 Frequencies --   1162.3817              1228.8129              1403.9346
 Red. masses --      2.1481                 2.4927                 2.8028
 Frc consts  --      1.7100                 2.2177                 3.2549
 IR Inten    --     15.0285                 4.1471                 3.7465

                     13                     14                     15
                     A'                     A'                     A'
 Frequencies --   1473.1318              3369.2379              3712.9728
 Red. masses --      1.9297                 1.1016                 1.0847
 Frc consts  --      2.4673                 7.3681                 8.8107
 IR Inten    --     40.8423                 4.5775               107.2968

 - Thermochemistry -
 -------------------
 Temperature   298.150 Kelvin.  Pressure   1.00000 Atm.
 Atom     1 has atomic number  6 and mass  12.00000

 Molecular mass:    70.02795 amu.
 Principal axes and moments of inertia in atomic units:
                           1         2         3
     Eigenvalues --   179.73636 184.21374 363.95010
           X            0.99550   0.09476   0.00000
           Y           -0.09476   0.99550   0.00000
           Z            0.00000   0.00000   1.00000
 This molecule is an asymmetric top.
 Rotational symmetry number  1.
 Rotational temperatures (Kelvin)      0.48189     0.47018     0.23798
 Rotational constants (GHZ):          10.04105     9.79700     4.95876
 Zero-point vibrational energy     120214.4 (Joules/Mol)
                                   28.73193 (Kcal/Mol)
 Vibrational temperatures:    940.35  1008.05  1021.20  1140.27  1246.97
          (Kelvin)           1289.73  1430.27  1471.34  1599.17  1672.41
                             1767.99  2019.95  2119.51  4847.58  5342.13

 Zero-point correction=                           0.045787 (Hartree/Particle)
 Thermal correction to Energy=                    0.049313
 Thermal correction to Enthalpy=                  0.050257
 Thermal correction to Gibbs Free Energy=         0.019613
 Sum of electronic and zero-point Energies=           -257.760963
 Sum of electronic and thermal Energies=              -257.757437
 Sum of electronic and thermal Enthalpies=            -257.756493
 Sum of electronic and thermal Free Energies=         -257.787137

                     E (Thermal)             CV                S
                      KCal/Mol        Cal/Mol-Kelvin    Cal/Mol-Kelvin
 Total                   30.944             11.848             64.496
 Electronic               0.000              0.000              0.000
 Translational            0.889              2.981             38.656
 Rotational               0.889              2.981             24.003
 Vibrational             29.167              5.886              1.837

 Normal termination of Gaussian 09 at Wed Nov 27 07:38:21 2013.
