 Gaussian 09, Revision D.01,
 Gaussian 09:  EM64L-G09RevD.01 24-Apr-2013

 -------------------------------------
 #B2PLYP=FULL/6-311G* opt freq density
 -------------------------------------

 ------------------------------------------------------------------
 1H-tetrazole CH2N4 casno=288948 state=1 config=1 method=59 basis=7
 ------------------------------------------------------------------
 Symbolic Z-matrix:
 Charge =  0 Multiplicity = 1

 SCF Done:  E(RB2PLYP) =  -257.805233368     A.U. after   14 cycles
 E2(B2PLYP) =    -0.2976166544D+00 E(B2PLYP) =    -0.25810285002280D+03
 SCF Done:  E(RB2PLYP) =  -257.804881913     A.U. after   12 cycles
 E2(B2PLYP) =    -0.3019737042D+00 E(B2PLYP) =    -0.25810685561700D+03
 SCF Done:  E(RB2PLYP) =  -257.804328797     A.U. after   11 cycles
 E2(B2PLYP) =    -0.3026307646D+00 E(B2PLYP) =    -0.25810695956128D+03
 SCF Done:  E(RB2PLYP) =  -257.804212476     A.U. after   10 cycles
 E2(B2PLYP) =    -0.3027557181D+00 E(B2PLYP) =    -0.25810696819394D+03
 SCF Done:  E(RB2PLYP) =  -257.804272477     A.U. after    9 cycles
 E2(B2PLYP) =    -0.3027008033D+00 E(B2PLYP) =    -0.25810697327998D+03
 SCF Done:  E(RB2PLYP) =  -257.804303254     A.U. after    8 cycles
 E2(B2PLYP) =    -0.3026708428D+00 E(B2PLYP) =    -0.25810697409712D+03
 Optimization completed.
    -- Stationary point found.
 Normal termination of Gaussian 09 at Mon Dec 16 16:24:36 2013.

 ----------------------------------------------------------------------
 #N Geom=AllCheck Guess=TCheck SCRF=Check GenChk RB2PLYP-Full/6-311G(d)
  Freq
 ----------------------------------------------------------------------

 Structure from the checkpoint file:  "/tmp/rdj3/g09-18029/Gau-20342.chk"
 ------------------------------------------------------------------
 1H-tetrazole CH2N4 casno=288948 state=1 config=1 method=59 basis=7
 ------------------------------------------------------------------
 Charge =  0 Multiplicity = 1

                         Standard orientation:
 ---------------------------------------------------------------------
 Center     Atomic      Atomic             Coordinates (Angstroms)
 Number     Number       Type             X           Y           Z
 ---------------------------------------------------------------------
      1          6           0        1.067345    0.235317    0.000000
      2          7           0        0.000000    1.055356    0.000000
      3          7           0       -1.121668    0.302875    0.000000
      4          7           0       -0.723404   -0.927184    0.000000
      5          7           0        0.640114   -1.007222    0.000000
      6          1           0        2.093472    0.561417    0.000000
      7          1           0       -0.062840    2.059911    0.000000
 ---------------------------------------------------------------------

 SCF Done:  E(RB2PLYP) =  -257.804303254     A.U. after    1 cycles
 E2(B2PLYP) =    -0.3026708437D+00 E(B2PLYP) =    -0.25810697409806D+03
 E2(B2PLYP) =    -0.3026708437D+00 E(B2PLYP) =    -0.25810697409806D+03

 The electronic state is 1-A'.
 Alpha  occ. eigenvalues --  -14.95412 -14.92488 -14.90663 -14.87255 -10.71659
 Alpha  occ. eigenvalues --   -1.29395  -1.08063  -1.02480  -0.78069  -0.76342
 Alpha  occ. eigenvalues --   -0.68753  -0.57874  -0.57585  -0.46297  -0.38787
 Alpha  occ. eigenvalues --   -0.38126  -0.37065  -0.36083
 Alpha virt. eigenvalues --    0.03706   0.06083   0.07894   0.10332   0.23760
 Alpha virt. eigenvalues --    0.24708   0.27956   0.34463   0.40026   0.45494
 Alpha virt. eigenvalues --    0.48741   0.50408   0.57256   0.63395   0.64018

 Mulliken charges:
               1
     1  C    0.109630
     2  N   -0.421468
     3  N   -0.014623
     4  N   -0.087928
     5  N   -0.226272
     6  H    0.260114
     7  H    0.380547
 Sum of Mulliken charges =   0.00000

 Dipole moment (field-independent basis, Debye):
    X=              2.5047    Y=              4.8394    Z=              0.0000  Tot=              5.4491
 Quadrupole moment (field-independent basis, Debye-Ang):
   XX=            -29.0509   YY=            -26.4601   ZZ=            -28.4872
   XY=              1.8269   XZ=              0.0000   YZ=              0.0000

  Exact polarizability:  38.631   1.037  37.983   0.000   0.000  17.342
 Approx polarizability:  51.018   0.215  53.990   0.000   0.000  22.033

                      1                      2                      3
                     A"                     A"                     A"
 Frequencies --    590.4998               697.2274               737.4043
 Red. masses --      1.9308                 1.8771                 7.2348
 Frc consts  --      0.3967                 0.5376                 2.3179
 IR Inten    --     88.1306                12.8754                10.5342

                      4                      5                      6
                     A"                     A'                     A'
 Frequencies --    849.7956               963.7167              1015.3997
 Red. masses --      1.3506                 5.2525                 6.6858
 Frc consts  --      0.5746                 2.8742                 4.0614
 IR Inten    --     22.2586                 5.0024                 0.1862

                      7                      8                      9
                     A'                     A'                     A'
 Frequencies --   1046.4548              1071.3882              1152.4539
 Red. masses --      5.3230                 3.5683                 1.9132
 Frc consts  --      3.4344                 2.4133                 1.4971
 IR Inten    --     15.1815                28.9171                16.4366

                     10                     11                     12
                     A'                     A'                     A'
 Frequencies --   1266.3875              1270.3457              1468.9268
 Red. masses --      4.0867                 3.9024                 3.3451
 Frc consts  --      3.8615                 3.7105                 4.2527
 IR Inten    --     14.2050                 1.8536                 8.8434

                     13                     14                     15
                     A'                     A'                     A'
 Frequencies --   1514.6837              3311.4080              3693.8256
 Red. masses --      2.6087                 1.1008                 1.0838
 Frc consts  --      3.5263                 7.1116                 8.7130
 IR Inten    --     20.4392                 0.7074                82.9421

 - Thermochemistry -
 -------------------
 Temperature   298.150 Kelvin.  Pressure   1.00000 Atm.
 Atom     1 has atomic number  6 and mass  12.00000

 Molecular mass:    70.02795 amu.
 Principal axes and moments of inertia in atomic units:
                           1         2         3
     Eigenvalues --   171.58074 174.82593 346.40667
           X            0.85831   0.51314   0.00000
           Y           -0.51314   0.85831   0.00000
           Z            0.00000   0.00000   1.00000
 This molecule is an asymmetric top.
 Rotational symmetry number  1.
 Rotational temperatures (Kelvin)      0.50480     0.49543     0.25004
 Rotational constants (GHZ):          10.51832    10.32308     5.20989
 Zero-point vibrational energy     123513.9 (Joules/Mol)
                                   29.52054 (Kcal/Mol)
 Warning -- explicit consideration of   1 degrees of freedom as
           vibrations may cause significant error
 Vibrational temperatures:    849.60  1003.15  1060.96  1222.66  1386.57
          (Kelvin)           1460.93  1505.61  1541.49  1658.12  1822.05
                             1827.74  2113.46  2179.29  4764.37  5314.58

 Zero-point correction=                           0.047044 (Hartree/Particle)
 Thermal correction to Energy=                    0.050511
 Thermal correction to Enthalpy=                  0.051455
 Thermal correction to Gibbs Free Energy=         0.020950
 Sum of electronic and zero-point Energies=           -258.059930
 Sum of electronic and thermal Energies=              -258.056463
 Sum of electronic and thermal Enthalpies=            -258.055519
 Sum of electronic and thermal Free Energies=         -258.086024

                     E (Thermal)             CV                S
                      KCal/Mol        Cal/Mol-Kelvin    Cal/Mol-Kelvin
 Total                   31.696             11.315             64.204
 Electronic               0.000              0.000              0.000
 Translational            0.889              2.981             38.656
 Rotational               0.889              2.981             23.856
 Vibrational             29.919              5.353              1.692
 Vibration     1          0.948              1.052              0.466

 Optimization completed.
    -- Stationary point found.
 Normal termination of Gaussian 09 at Mon Dec 16 16:25:45 2013.
