 Gaussian 09, Revision D.01,
 Gaussian 09:  EM64L-G09RevD.01 24-Apr-2013

 -----------------------------------------------
 #B2PLYP=FULL/6-311G** opt=z-matrix freq density
 -----------------------------------------------

 -------------------------------------------------------------------
 1H-tetrazole CH2N4 casno=288948 state=1 config=1 method=59 basis=21
 -------------------------------------------------------------------
 Symbolic Z-matrix:
 Charge =  0 Multiplicity = 1

 SCF Done:  E(RB2PLYP) =  -257.810247248     A.U. after   14 cycles
 E2(B2PLYP) =    -0.3007951746D+00 E(B2PLYP) =    -0.25811104242233D+03
 SCF Done:  E(RB2PLYP) =  -257.809925660     A.U. after   12 cycles
 E2(B2PLYP) =    -0.3051489301D+00 E(B2PLYP) =    -0.25811507458963D+03
 SCF Done:  E(RB2PLYP) =  -257.809393548     A.U. after   11 cycles
 E2(B2PLYP) =    -0.3057880584D+00 E(B2PLYP) =    -0.25811518160630D+03
 SCF Done:  E(RB2PLYP) =  -257.809288263     A.U. after   12 cycles
 E2(B2PLYP) =    -0.3057108975D+00 E(B2PLYP) =    -0.25811499916076D+03
 SCF Done:  E(RB2PLYP) =  -257.809297763     A.U. after   10 cycles
 E2(B2PLYP) =    -0.3058966035D+00 E(B2PLYP) =    -0.25811519436659D+03
 SCF Done:  E(RB2PLYP) =  -257.809320041     A.U. after   10 cycles
 E2(B2PLYP) =    -0.3058545583D+00 E(B2PLYP) =    -0.25811517459925D+03
 SCF Done:  E(RB2PLYP) =  -257.809320634     A.U. after    9 cycles
 E2(B2PLYP) =    -0.3058754131D+00 E(B2PLYP) =    -0.25811519604694D+03
 SCF Done:  E(RB2PLYP) =  -257.809320051     A.U. after    9 cycles
 E2(B2PLYP) =    -0.3058699642D+00 E(B2PLYP) =    -0.25811519001533D+03
 SCF Done:  E(RB2PLYP) =  -257.809331889     A.U. after    8 cycles
 E2(B2PLYP) =    -0.3058643081D+00 E(B2PLYP) =    -0.25811519619693D+03
 SCF Done:  E(RB2PLYP) =  -257.809333303     A.U. after    7 cycles
 E2(B2PLYP) =    -0.3058629002D+00 E(B2PLYP) =    -0.25811519620334D+03
 SCF Done:  E(RB2PLYP) =  -257.809335136     A.U. after    8 cycles
 E2(B2PLYP) =    -0.3058607335D+00 E(B2PLYP) =    -0.25811519586907D+03
 SCF Done:  E(RB2PLYP) =  -257.809331818     A.U. after    7 cycles
 E2(B2PLYP) =    -0.3058643397D+00 E(B2PLYP) =    -0.25811519615766D+03
 SCF Done:  E(RB2PLYP) =  -257.809338059     A.U. after    8 cycles
 E2(B2PLYP) =    -0.3058579974D+00 E(B2PLYP) =    -0.25811519605655D+03
 SCF Done:  E(RB2PLYP) =  -257.809328647     A.U. after    8 cycles
 E2(B2PLYP) =    -0.3058675500D+00 E(B2PLYP) =    -0.25811519619745D+03
 SCF Done:  E(RB2PLYP) =  -257.809337314     A.U. after    8 cycles
 E2(B2PLYP) =    -0.3058587703D+00 E(B2PLYP) =    -0.25811519608424D+03
 SCF Done:  E(RB2PLYP) =  -257.809327483     A.U. after    8 cycles
 E2(B2PLYP) =    -0.3058686960D+00 E(B2PLYP) =    -0.25811519617856D+03
 SCF Done:  E(RB2PLYP) =  -257.809334621     A.U. after    8 cycles
 E2(B2PLYP) =    -0.3058615654D+00 E(B2PLYP) =    -0.25811519618660D+03
 SCF Done:  E(RB2PLYP) =  -257.809329196     A.U. after    8 cycles
 E2(B2PLYP) =    -0.3058669935D+00 E(B2PLYP) =    -0.25811519618949D+03
 SCF Done:  E(RB2PLYP) =  -257.809334149     A.U. after    7 cycles
 E2(B2PLYP) =    -0.3058619608D+00 E(B2PLYP) =    -0.25811519610967D+03
 Optimization completed.
    -- Stationary point found.
 Normal termination of Gaussian 09 at Wed Nov 27 01:48:39 2013.

 ----------------------------------------------------------------------
 #N Geom=AllCheck Guess=TCheck SCRF=Check GenChk RB2PLYP-Full/6-311G(d,
 p) Freq
 ----------------------------------------------------------------------

 Structure from the checkpoint file:  "/tmp/rdj3/g09-23219/Gau-12903.chk"
 -------------------------------------------------------------------
 1H-tetrazole CH2N4 casno=288948 state=1 config=1 method=59 basis=21
 -------------------------------------------------------------------
 Charge =  0 Multiplicity = 1

                         Standard orientation:
 ---------------------------------------------------------------------
 Center     Atomic      Atomic             Coordinates (Angstroms)
 Number     Number       Type             X           Y           Z
 ---------------------------------------------------------------------
      1          6           0        1.067653    0.235313    0.000000
      2          7           0        0.000000    1.055639    0.000000
      3          7           0       -1.121535    0.302706    0.000000
      4          7           0       -0.723348   -0.927360    0.000000
      5          7           0        0.639580   -1.007413    0.000000
      6          1           0        2.093069    0.561756    0.000000
      7          1           0       -0.061860    2.061363    0.000000
 ---------------------------------------------------------------------

 SCF Done:  E(RB2PLYP) =  -257.809334149     A.U. after    1 cycles
 E2(B2PLYP) =    -0.3058619630D+00 E(B2PLYP) =    -0.25811519611186D+03
 E2(B2PLYP) =    -0.3058619630D+00 E(B2PLYP) =    -0.25811519611186D+03

 The electronic state is 1-A'.
 Alpha  occ. eigenvalues --  -14.95417 -14.92500 -14.90695 -14.87301 -10.71638
 Alpha  occ. eigenvalues --   -1.29383  -1.08031  -1.02462  -0.77971  -0.76320
 Alpha  occ. eigenvalues --   -0.68652  -0.57819  -0.57602  -0.46293  -0.38830
 Alpha  occ. eigenvalues --   -0.38143  -0.37076  -0.36112
 Alpha virt. eigenvalues --    0.03567   0.06137   0.07811   0.10342   0.23611
 Alpha virt. eigenvalues --    0.24685   0.27923   0.34383   0.39979   0.45442
 Alpha virt. eigenvalues --    0.48749   0.50407   0.56833   0.63070   0.63482

 Mulliken charges:
               1
     1  C    0.214163
     2  N   -0.267897
     3  N   -0.030686
     4  N   -0.086418
     5  N   -0.229448
     6  H    0.145331
     7  H    0.254955
 Sum of Mulliken charges =   0.00000

 Dipole moment (field-independent basis, Debye):
    X=              2.4844    Y=              4.7880    Z=              0.0000  Tot=              5.3942
 Quadrupole moment (field-independent basis, Debye-Ang):
   XX=            -29.0973   YY=            -26.5590   ZZ=            -28.3988
   XY=              1.8114   XZ=              0.0000   YZ=              0.0000

  Exact polarizability:  38.828   1.064  38.241   0.000   0.000  17.595
 Approx polarizability:  51.343   0.261  54.452   0.000   0.000  22.415

                      1                      2                      3
                     A"                     A"                     A"
 Frequencies --    595.7747               695.7793               736.9778
 Red. masses --      1.9390                 1.8825                 6.9910
 Frc consts  --      0.4055                 0.5369                 2.2372
 IR Inten    --     80.0828                12.4436                11.0782

                      4                      5                      6
                     A"                     A'                     A'
 Frequencies --    864.3207               963.7855              1012.8793
 Red. masses --      1.3527                 5.0300                 6.2888
 Frc consts  --      0.5954                 2.7528                 3.8013
 IR Inten    --     19.0395                 4.6849                 0.1963

                      7                      8                      9
                     A'                     A'                     A'
 Frequencies --   1044.6070              1068.0860              1149.3034
 Red. masses --      5.3743                 3.3626                 1.9622
 Frc consts  --      3.4552                 2.2601                 1.5271
 IR Inten    --     15.4122                28.5967                16.4753

                     10                     11                     12
                     A'                     A'                     A'
 Frequencies --   1263.5964              1267.9050              1460.4685
 Red. masses --      2.5692                 8.5378                 3.2530
 Frc consts  --      2.4169                 8.0867                 4.0881
 IR Inten    --      7.4279                 8.2708                 9.2760

                     13                     14                     15
                     A'                     A'                     A'
 Frequencies --   1504.2891              3308.3579              3676.4616
 Red. masses --      2.8633                 1.1006                 1.0839
 Frc consts  --      3.8175                 7.0976                 8.6322
 IR Inten    --     18.2202                 1.6389                99.8927

 - Thermochemistry -
 -------------------
 Temperature   298.150 Kelvin.  Pressure   1.00000 Atm.
 Atom     1 has atomic number  6 and mass  12.00000

 Molecular mass:    70.02795 amu.
 Principal axes and moments of inertia in atomic units:
                           1         2         3
     Eigenvalues --   171.67479 174.78281 346.45760
           X            0.85366   0.52083   0.00000
           Y           -0.52083   0.85366   0.00000
           Z            0.00000   0.00000   1.00000
 This molecule is an asymmetric top.
 Rotational symmetry number  1.
 Rotational temperatures (Kelvin)      0.50452     0.49555     0.25000
 Rotational constants (GHZ):          10.51256    10.32562     5.20913
 Zero-point vibrational energy     123290.7 (Joules/Mol)
                                   29.46718 (Kcal/Mol)
 Warning -- explicit consideration of   1 degrees of freedom as
           vibrations may cause significant error
 Vibrational temperatures:    857.19  1001.07  1060.35  1243.56  1386.67
          (Kelvin)           1457.31  1502.95  1536.74  1653.59  1818.03
                             1824.23  2101.29  2164.33  4759.98  5289.60

 Zero-point correction=                           0.046959 (Hartree/Particle)
 Thermal correction to Energy=                    0.050422
 Thermal correction to Enthalpy=                  0.051366
 Thermal correction to Gibbs Free Energy=         0.020866
 Sum of electronic and zero-point Energies=           -258.068237
 Sum of electronic and thermal Energies=              -258.064774
 Sum of electronic and thermal Enthalpies=            -258.063830
 Sum of electronic and thermal Free Energies=         -258.094330

                     E (Thermal)             CV                S
                      KCal/Mol        Cal/Mol-Kelvin    Cal/Mol-Kelvin
 Total                   31.640             11.303             64.192
 Electronic               0.000              0.000              0.000
 Translational            0.889              2.981             38.656
 Rotational               0.889              2.981             23.856
 Vibrational             29.863              5.342              1.680
 Vibration     1          0.954              1.041              0.457

 Normal termination of Gaussian 09 at Wed Nov 27 01:50:09 2013.
