 Gaussian 09, Revision D.01,
 Gaussian 09:  EM64L-G09RevD.01 24-Apr-2013

 ---------------------------------------------
 #B2PLYP=FULL/6-31G* opt=z-matrix freq density
 ---------------------------------------------

 ------------------------------------------------------------------
 1H-tetrazole CH2N4 casno=288948 state=1 config=1 method=59 basis=1
 ------------------------------------------------------------------
 Symbolic Z-matrix:
 Charge =  0 Multiplicity = 1

 SCF Done:  E(RB2PLYP) =  -257.746738434     A.U. after   15 cycles
 E2(B2PLYP) =    -0.2635298507D+00 E(B2PLYP) =    -0.25801026828468D+03
 SCF Done:  E(RB2PLYP) =  -257.746746469     A.U. after   13 cycles
 E2(B2PLYP) =    -0.2686514612D+00 E(B2PLYP) =    -0.25801539792993D+03
 SCF Done:  E(RB2PLYP) =  -257.746249066     A.U. after   11 cycles
 E2(B2PLYP) =    -0.2692845878D+00 E(B2PLYP) =    -0.25801553365423D+03
 SCF Done:  E(RB2PLYP) =  -257.746181362     A.U. after   11 cycles
 E2(B2PLYP) =    -0.2693210837D+00 E(B2PLYP) =    -0.25801550244609D+03
 SCF Done:  E(RB2PLYP) =  -257.746120725     A.U. after   10 cycles
 E2(B2PLYP) =    -0.2694248872D+00 E(B2PLYP) =    -0.25801554561226D+03
 SCF Done:  E(RB2PLYP) =  -257.746071157     A.U. after   12 cycles
 E2(B2PLYP) =    -0.2693181418D+00 E(B2PLYP) =    -0.25801538929918D+03
 SCF Done:  E(RB2PLYP) =  -257.746116000     A.U. after    9 cycles
 E2(B2PLYP) =    -0.2694304047D+00 E(B2PLYP) =    -0.25801554640474D+03
 SCF Done:  E(RB2PLYP) =  -257.746062667     A.U. after   11 cycles
 E2(B2PLYP) =    -0.2694556230D+00 E(B2PLYP) =    -0.25801551828996D+03
 SCF Done:  E(RB2PLYP) =  -257.746115817     A.U. after    8 cycles
 E2(B2PLYP) =    -0.2694307981D+00 E(B2PLYP) =    -0.25801554661498D+03
 Optimization completed.
    -- Stationary point found.
 Normal termination of Gaussian 09 at Wed Nov 27 01:43:58 2013.

 ----------------------------------------------------------------------
 #N Geom=AllCheck Guess=TCheck SCRF=Check GenChk RB2PLYP-Full/6-31G(d)
 Freq
 ----------------------------------------------------------------------

 Structure from the checkpoint file:  "/tmp/rdj3/g09-23219/Gau-9564.chk"
 ------------------------------------------------------------------
 1H-tetrazole CH2N4 casno=288948 state=1 config=1 method=59 basis=1
 ------------------------------------------------------------------
 Charge =  0 Multiplicity = 1

                         Standard orientation:
 ---------------------------------------------------------------------
 Center     Atomic      Atomic             Coordinates (Angstroms)
 Number     Number       Type             X           Y           Z
 ---------------------------------------------------------------------
      1          6           0        1.069108    0.237658    0.000000
      2          7           0        0.000000    1.056381    0.000000
      3          7           0       -1.125263    0.303867    0.000000
      4          7           0       -0.723089   -0.930943    0.000000
      5          7           0        0.641661   -1.008840    0.000000
      6          1           0        2.095723    0.566038    0.000000
      7          1           0       -0.063530    2.064764    0.000000
 ---------------------------------------------------------------------

 SCF Done:  E(RB2PLYP) =  -257.746115817     A.U. after    1 cycles
 E2(B2PLYP) =    -0.2694307959D+00 E(B2PLYP) =    -0.25801554661274D+03
 E2(B2PLYP) =    -0.2694307959D+00 E(B2PLYP) =    -0.25801554661274D+03

 The electronic state is 1-A'.
 Alpha  occ. eigenvalues --  -14.97058 -14.94061 -14.92257 -14.88804 -10.72647
 Alpha  occ. eigenvalues --   -1.28726  -1.07617  -1.01963  -0.77647  -0.75899
 Alpha  occ. eigenvalues --   -0.68263  -0.57447  -0.57082  -0.45900  -0.38373
 Alpha  occ. eigenvalues --   -0.37818  -0.36704  -0.35608
 Alpha virt. eigenvalues --    0.04150   0.08468   0.11064   0.16521   0.26024
 Alpha virt. eigenvalues --    0.26793   0.35688   0.39277   0.50356   0.60581
 Alpha virt. eigenvalues --    0.60595   0.68602   0.69233   0.74231   0.76302

 Mulliken charges:
               1
     1  C    0.244655
     2  N   -0.427884
     3  N   -0.039363
     4  N   -0.083275
     5  N   -0.293852
     6  H    0.215589
     7  H    0.384130
 Sum of Mulliken charges =   0.00000

 Dipole moment (field-independent basis, Debye):
    X=              2.5083    Y=              4.7995    Z=              0.0000  Tot=              5.4154
 Quadrupole moment (field-independent basis, Debye-Ang):
   XX=            -28.7740   YY=            -26.1505   ZZ=            -28.3219
   XY=              1.8036   XZ=              0.0000   YZ=              0.0000

  Exact polarizability:  37.463   1.031  36.906   0.000   0.000  15.453
 Approx polarizability:  50.594   0.094  53.587   0.000   0.000  20.156

                      1                      2                      3
                     A"                     A"                     A"
 Frequencies --    573.2268               693.0927               736.2965
 Red. masses --      1.8078                 2.0121                 7.7725
 Frc consts  --      0.3500                 0.5695                 2.4826
 IR Inten    --     91.8524                10.0616                 9.2839

                      4                      5                      6
                     A"                     A'                     A'
 Frequencies --    846.0928               968.9764              1012.2611
 Red. masses --      1.3324                 5.0643                 6.2779
 Frc consts  --      0.5620                 2.8016                 3.7901
 IR Inten    --     19.6743                 3.9791                 0.4695

                      7                      8                      9
                     A'                     A'                     A'
 Frequencies --   1057.0023              1073.1065              1159.7848
 Red. masses --      5.2636                 3.8849                 1.8148
 Frc consts  --      3.4649                 2.6358                 1.4382
 IR Inten    --     14.2750                30.3167                15.0220

                     10                     11                     12
                     A'                     A'                     A'
 Frequencies --   1267.5563              1275.6291              1474.5641
 Red. masses --      4.7259                 3.3413                 3.1427
 Frc consts  --      4.4737                 3.2034                 4.0260
 IR Inten    --     15.0312                 0.9210                10.4607

                     13                     14                     15
                     A'                     A'                     A'
 Frequencies --   1512.2435              3339.5327              3673.3791
 Red. masses --      3.0340                 1.1004                 1.0840
 Frc consts  --      4.0880                 7.2306                 8.6181
 IR Inten    --     19.7487                 1.2242                92.2740

 - Thermochemistry -
 -------------------
 Temperature   298.150 Kelvin.  Pressure   1.00000 Atm.
 Atom     1 has atomic number  6 and mass  12.00000

 Molecular mass:    70.02795 amu.
 Principal axes and moments of inertia in atomic units:
                           1         2         3
     Eigenvalues --   172.37142 175.49730 347.86871
           X            0.85322   0.52155   0.00000
           Y           -0.52155   0.85322   0.00000
           Z            0.00000   0.00000   1.00000
 This molecule is an asymmetric top.
 Rotational symmetry number  1.
 Rotational temperatures (Kelvin)      0.50248     0.49353     0.24898
 Rotational constants (GHZ):          10.47007    10.28358     5.18800
 Zero-point vibrational energy     123590.7 (Joules/Mol)
                                   29.53888 (Kcal/Mol)
 Warning -- explicit consideration of   1 degrees of freedom as
           vibrations may cause significant error
 Vibrational temperatures:    824.74   997.20  1059.37  1217.34  1394.14
          (Kelvin)           1456.42  1520.79  1543.96  1668.67  1823.73
                             1835.34  2121.57  2175.78  4804.84  5285.17

 Zero-point correction=                           0.047073 (Hartree/Particle)
 Thermal correction to Energy=                    0.050550
 Thermal correction to Enthalpy=                  0.051495
 Thermal correction to Gibbs Free Energy=         0.020968
 Sum of electronic and zero-point Energies=           -257.968473
 Sum of electronic and thermal Energies=              -257.964996
 Sum of electronic and thermal Enthalpies=            -257.964052
 Sum of electronic and thermal Free Energies=         -257.994579

                     E (Thermal)             CV                S
                      KCal/Mol        Cal/Mol-Kelvin    Cal/Mol-Kelvin
 Total                   31.721             11.343             64.249
 Electronic               0.000              0.000              0.000
 Translational            0.889              2.981             38.656
 Rotational               0.889              2.981             23.869
 Vibrational             29.943              5.381              1.725
 Vibration     1          0.929              1.089              0.498

 Normal termination of Gaussian 09 at Wed Nov 27 01:44:40 2013.
