 Gaussian 09, Revision D.01,
 Gaussian 09:  EM64L-G09RevD.01 24-Apr-2013

 ------------------------------------
 #B2PLYP=FULL/STO-3G opt freq density
 ------------------------------------

 -------------------------------------------------------------------
 1H-tetrazole CH2N4 casno=288948 state=1 config=1 method=59 basis=20
 -------------------------------------------------------------------
 Symbolic Z-matrix:
 Charge =  0 Multiplicity = 1

 SCF Done:  E(RB2PLYP) =  -254.382509342     A.U. after   14 cycles
 E2(B2PLYP) =    -0.1007216519D+00 E(B2PLYP) =    -0.25448323099344D+03
 SCF Done:  E(RB2PLYP) =  -254.419486954     A.U. after   14 cycles
 E2(B2PLYP) =    -0.1154058930D+00 E(B2PLYP) =    -0.25453489284725D+03
 SCF Done:  E(RB2PLYP) =  -254.416663172     A.U. after   14 cycles
 E2(B2PLYP) =    -0.1238181203D+00 E(B2PLYP) =    -0.25454048129183D+03
 SCF Done:  E(RB2PLYP) =  -254.416232958     A.U. after   13 cycles
 E2(B2PLYP) =    -0.1243842953D+00 E(B2PLYP) =    -0.25454061725290D+03
 SCF Done:  E(RB2PLYP) =  -254.416821916     A.U. after   11 cycles
 E2(B2PLYP) =    -0.1240100844D+00 E(B2PLYP) =    -0.25454083200035D+03
 SCF Done:  E(RB2PLYP) =  -254.416883262     A.U. after    9 cycles
 E2(B2PLYP) =    -0.1239514306D+00 E(B2PLYP) =    -0.25454083469300D+03
 Optimization completed.
    -- Stationary point found.
 Normal termination of Gaussian 09 at Mon Dec 16 16:03:47 2013.

 ----------------------------------------------------------------------
 #N Geom=AllCheck Guess=TCheck SCRF=Check GenChk RB2PLYP-Full/STO-3G Fr
 eq
 ----------------------------------------------------------------------

 Structure from the checkpoint file:  "/tmp/rdj3/g09-18029/Gau-17787.chk"
 -------------------------------------------------------------------
 1H-tetrazole CH2N4 casno=288948 state=1 config=1 method=59 basis=20
 -------------------------------------------------------------------
 Charge =  0 Multiplicity = 1

                         Standard orientation:
 ---------------------------------------------------------------------
 Center     Atomic      Atomic             Coordinates (Angstroms)
 Number     Number       Type             X           Y           Z
 ---------------------------------------------------------------------
      1          6           0        1.105305    0.257333    0.000000
      2          7           0        0.000000    1.104620    0.000000
      3          7           0       -1.200514    0.316966    0.000000
      4          7           0       -0.755869   -0.989599    0.000000
      5          7           0        0.708079   -1.049068    0.000000
      6          1           0        2.139442    0.624200    0.000000
      7          1           0       -0.033145    2.151374    0.000000
 ---------------------------------------------------------------------

 SCF Done:  E(RB2PLYP) =  -254.416883262     A.U. after    1 cycles
 E2(B2PLYP) =    -0.1239514302D+00 E(B2PLYP) =    -0.25454083469256D+03
 E2(B2PLYP) =    -0.1239514302D+00 E(B2PLYP) =    -0.25454083469256D+03

 The electronic state is 1-A'.
 Alpha  occ. eigenvalues --  -14.78588 -14.73350 -14.70360 -14.67639 -10.54801
 Alpha  occ. eigenvalues --   -1.18024  -0.99253  -0.94808  -0.70290  -0.68198
 Alpha  occ. eigenvalues --   -0.60809  -0.49079  -0.47726  -0.36873  -0.30144
 Alpha  occ. eigenvalues --   -0.29522  -0.28747  -0.28184
 Alpha virt. eigenvalues --    0.10602   0.15827   0.30819   0.33731   0.44063
 Alpha virt. eigenvalues --    0.45045   0.46910   0.62523   0.68291

 Mulliken charges:
               1
     1  C    0.076803
     2  N   -0.196000
     3  N   -0.039547
     4  N   -0.062711
     5  N   -0.151083
     6  H    0.119589
     7  H    0.252949
 Sum of Mulliken charges =   0.00000

 Dipole moment (field-independent basis, Debye):
    X=              2.0759    Y=              4.3608    Z=              0.0000  Tot=              4.8297
 Quadrupole moment (field-independent basis, Debye-Ang):
   XX=            -27.5068   YY=            -24.8088   ZZ=            -25.9078
   XY=              1.7749   XZ=              0.0000   YZ=              0.0000

  Exact polarizability:  24.767   1.326  25.856   0.000   0.000   6.254
 Approx polarizability:  41.554  -0.709  48.908   0.000   0.000   5.828

                      1                      2                      3
                     A"                     A"                     A"
 Frequencies --    444.3984               639.3079               649.8673
 Red. masses --      1.8577                 2.1472                 7.8109
 Frc consts  --      0.2162                 0.5171                 1.9436
 IR Inten    --     83.2565                13.6671                 7.8748

                      4                      5                      6
                     A"                     A'                     A'
 Frequencies --    839.3691               896.1213               955.2220
 Red. masses --      1.2454                 6.8870                 5.5257
 Frc consts  --      0.5170                 3.2585                 2.9706
 IR Inten    --     10.2073                 3.1474                 0.1199

                      7                      8                      9
                     A'                     A'                     A'
 Frequencies --   1007.1503              1026.6706              1130.1889
 Red. masses --      8.0583                 2.8234                 1.9510
 Frc consts  --      4.8159                 1.7534                 1.4683
 IR Inten    --     15.3826                13.6328                 6.7986

                     10                     11                     12
                     A'                     A'                     A'
 Frequencies --   1175.3860              1241.5808              1464.0604
 Red. masses --      4.1366                 2.9636                 3.5642
 Frc consts  --      3.3671                 2.6916                 4.5013
 IR Inten    --      1.2228                 1.7634                13.4022

                     13                     14                     15
                     A'                     A'                     A'
 Frequencies --   1494.5213              3537.3950              3773.1410
 Red. masses --      2.9221                 1.1004                 1.0865
 Frc consts  --      3.8455                 8.1127                 9.1136
 IR Inten    --     33.2156                31.5887                83.5129

 - Thermochemistry -
 -------------------
 Temperature   298.150 Kelvin.  Pressure   1.00000 Atm.
 Atom     1 has atomic number  6 and mass  12.00000

 Molecular mass:    70.02795 amu.
 Principal axes and moments of inertia in atomic units:
                           1         2         3
     Eigenvalues --   189.44621 195.42850 384.87471
           X            0.90253   0.43062   0.00000
           Y           -0.43062   0.90253   0.00000
           Z            0.00000   0.00000   1.00000
 This molecule is an asymmetric top.
 Rotational symmetry number  1.
 Rotational temperatures (Kelvin)      0.45719     0.44320     0.22504
 Rotational constants (GHZ):           9.52640     9.23479     4.68917
 Zero-point vibrational energy     121267.7 (Joules/Mol)
                                   28.98368 (Kcal/Mol)
 Warning -- explicit consideration of   1 degrees of freedom as
           vibrations may cause significant error
 Vibrational temperatures:    639.39   919.82   935.01  1207.66  1289.32
          (Kelvin)           1374.35  1449.06  1477.15  1626.09  1691.12
                             1786.36  2106.45  2150.28  5089.52  5428.70

 Zero-point correction=                           0.046188 (Hartree/Particle)
 Thermal correction to Energy=                    0.049865
 Thermal correction to Enthalpy=                  0.050809
 Thermal correction to Gibbs Free Energy=         0.019847
 Sum of electronic and zero-point Energies=           -254.494646
 Sum of electronic and thermal Energies=              -254.490970
 Sum of electronic and thermal Enthalpies=            -254.490026
 Sum of electronic and thermal Free Energies=         -254.520988

                     E (Thermal)             CV                S
                      KCal/Mol        Cal/Mol-Kelvin    Cal/Mol-Kelvin
 Total                   31.291             12.271             65.165
 Electronic               0.000              0.000              0.000
 Translational            0.889              2.981             38.656
 Rotational               0.889              2.981             24.170
 Vibrational             29.513              6.309              2.339
 Vibration     1          0.804              1.373              0.813

 Optimization completed.
    -- Stationary point found.
 Normal termination of Gaussian 09 at Mon Dec 16 16:03:54 2013.
