 Gaussian 09, Revision D.01,
 Gaussian 09:  EM64L-G09RevD.01 24-Apr-2013

 --------------------------------------------------
 #B2PLYP=FULL/aug-cc-pVDZ opt=z-matrix freq density
 --------------------------------------------------

 -------------------------------------------------------------------
 1H-tetrazole CH2N4 casno=288948 state=1 config=1 method=59 basis=17
 -------------------------------------------------------------------
 Symbolic Z-matrix:
 Charge =  0 Multiplicity = 1

 SCF Done:  E(RB2PLYP) =  -257.789981793     A.U. after   13 cycles
 E2(B2PLYP) =    -0.2738470734D+00 E(B2PLYP) =    -0.25806382886686D+03
 SCF Done:  E(RB2PLYP) =  -257.790113333     A.U. after   12 cycles
 E2(B2PLYP) =    -0.2796592700D+00 E(B2PLYP) =    -0.25806977260269D+03
 SCF Done:  E(RB2PLYP) =  -257.789429031     A.U. after   11 cycles
 E2(B2PLYP) =    -0.2804946369D+00 E(B2PLYP) =    -0.25806992366781D+03
 SCF Done:  E(RB2PLYP) =  -257.789156426     A.U. after   12 cycles
 E2(B2PLYP) =    -0.2803547780D+00 E(B2PLYP) =    -0.25806951120442D+03
 SCF Done:  E(RB2PLYP) =  -257.789317018     A.U. after   10 cycles
 E2(B2PLYP) =    -0.2806406044D+00 E(B2PLYP) =    -0.25806995762205D+03
 SCF Done:  E(RB2PLYP) =  -257.789332871     A.U. after   11 cycles
 E2(B2PLYP) =    -0.2803612342D+00 E(B2PLYP) =    -0.25806969410529D+03
 SCF Done:  E(RB2PLYP) =  -257.789352582     A.U. after    9 cycles
 E2(B2PLYP) =    -0.2806070282D+00 E(B2PLYP) =    -0.25806995960986D+03
 SCF Done:  E(RB2PLYP) =  -257.789362296     A.U. after   10 cycles
 E2(B2PLYP) =    -0.2805306721D+00 E(B2PLYP) =    -0.25806989296844D+03
 SCF Done:  E(RB2PLYP) =  -257.789367321     A.U. after    8 cycles
 E2(B2PLYP) =    -0.2805925977D+00 E(B2PLYP) =    -0.25806995991866D+03
 SCF Done:  E(RB2PLYP) =  -257.789371669     A.U. after    7 cycles
 E2(B2PLYP) =    -0.2805881923D+00 E(B2PLYP) =    -0.25806995986098D+03
 SCF Done:  E(RB2PLYP) =  -257.789372509     A.U. after    9 cycles
 E2(B2PLYP) =    -0.2805869183D+00 E(B2PLYP) =    -0.25806995942683D+03
 SCF Done:  E(RB2PLYP) =  -257.789368392     A.U. after    7 cycles
 E2(B2PLYP) =    -0.2805915866D+00 E(B2PLYP) =    -0.25806995997819D+03
 SCF Done:  E(RB2PLYP) =  -257.789369164     A.U. after    7 cycles
 E2(B2PLYP) =    -0.2805908483D+00 E(B2PLYP) =    -0.25806996001226D+03
 SCF Done:  E(RB2PLYP) =  -257.789369583     A.U. after    7 cycles
 E2(B2PLYP) =    -0.2805904027D+00 E(B2PLYP) =    -0.25806995998614D+03
 Optimization completed.
    -- Stationary point found.
 Normal termination of Gaussian 09 at Tue Nov 26 11:51:00 2013.

 ----------------------------------------------------------------------
 #N Geom=AllCheck Guess=TCheck SCRF=Check GenChk RB2PLYP-Full/Aug-CC-pV
 DZ Freq
 ----------------------------------------------------------------------

 Structure from the checkpoint file:  "/tmp/rdj3/g09-23219/Gau-2199.chk"
 -------------------------------------------------------------------
 1H-tetrazole CH2N4 casno=288948 state=1 config=1 method=59 basis=17
 -------------------------------------------------------------------
 Charge =  0 Multiplicity = 1

                         Standard orientation:
 ---------------------------------------------------------------------
 Center     Atomic      Atomic             Coordinates (Angstroms)
 Number     Number       Type             X           Y           Z
 ---------------------------------------------------------------------
      1          6           0        1.071572    0.237795    0.000000
      2          7           0        0.000000    1.058261    0.000000
      3          7           0       -1.125411    0.306521    0.000000
      4          7           0       -0.725432   -0.932342    0.000000
      5          7           0        0.640380   -1.012521    0.000000
      6          1           0        2.103063    0.566066    0.000000
      7          1           0       -0.059259    2.067731    0.000000
 ---------------------------------------------------------------------

 SCF Done:  E(RB2PLYP) =  -257.789369583     A.U. after    1 cycles
 E2(B2PLYP) =    -0.2805904045D+00 E(B2PLYP) =    -0.25806995998787D+03
 E2(B2PLYP) =    -0.2805904045D+00 E(B2PLYP) =    -0.25806995998787D+03

 The electronic state is 1-A'.
 Alpha  occ. eigenvalues --  -14.97350 -14.94775 -14.93187 -14.89742 -10.73365
 Alpha  occ. eigenvalues --   -1.29390  -1.08391  -1.02630  -0.78283  -0.76622
 Alpha  occ. eigenvalues --   -0.68693  -0.57970  -0.57715  -0.46726  -0.39140
 Alpha  occ. eigenvalues --   -0.38815  -0.37770  -0.36276
 Alpha virt. eigenvalues --   -0.00588   0.02183   0.02248   0.04994   0.05800
 Alpha virt. eigenvalues --    0.07821   0.07928   0.09495   0.10815   0.11771
 Alpha virt. eigenvalues --    0.12593   0.13737   0.15277   0.16253   0.17464

 Mulliken charges:
               1
     1  C    0.901141
     2  N    0.062670
     3  N   -0.138981
     4  N   -0.264734
     5  N   -0.269591
     6  H   -0.222336
     7  H   -0.068168
 Sum of Mulliken charges =   0.00000

 Dipole moment (field-independent basis, Debye):
    X=              2.5464    Y=              4.7816    Z=              0.0000  Tot=              5.4174
 Quadrupole moment (field-independent basis, Debye-Ang):
   XX=            -29.5508   YY=            -27.0274   ZZ=            -29.1984
   XY=              1.9142   XZ=              0.0000   YZ=              0.0000

  Exact polarizability:  46.446   0.576  45.790   0.000   0.000  26.659
 Approx polarizability:  58.272   0.186  60.734   0.000   0.000  33.012

                      1                      2                      3
                     A"                     A"                     A"
 Frequencies --    588.9159               688.5342               731.9745
 Red. masses --      1.7871                 1.9297                 8.2138
 Frc consts  --      0.3652                 0.5390                 2.5929
 IR Inten    --     77.5639                 8.6150                 8.0957

                      4                      5                      6
                     A"                     A'                     A'
 Frequencies --    847.9420               958.2894              1003.7504
 Red. masses --      1.3705                 4.6016                 6.4544
 Frc consts  --      0.5806                 2.4897                 3.8314
 IR Inten    --     19.8323                 3.8275                 0.2947

                      7                      8                      9
                     A'                     A'                     A'
 Frequencies --   1049.1606              1060.3985              1138.3636
 Red. masses --      5.2227                 3.3424                 1.9187
 Frc consts  --      3.3871                 2.2143                 1.4649
 IR Inten    --     13.6106                30.6909                13.8591

                     10                     11                     12
                     A'                     A'                     A'
 Frequencies --   1249.1044              1256.8288              1455.8037
 Red. masses --      3.9138                 4.1837                 3.3751
 Frc consts  --      3.5979                 3.8937                 4.2145
 IR Inten    --     10.8374                 1.6073                 9.4902

                     13                     14                     15
                     A'                     A'                     A'
 Frequencies --   1489.8380              3313.1705              3658.7491
 Red. masses --      2.9410                 1.1013                 1.0846
 Frc consts  --      3.8461                 7.1225                 8.5541
 IR Inten    --     17.1185                 2.4607                98.1106

 - Thermochemistry -
 -------------------
 Temperature   298.150 Kelvin.  Pressure   1.00000 Atm.
 Atom     1 has atomic number  6 and mass  12.00000

 Molecular mass:    70.02795 amu.
 Principal axes and moments of inertia in atomic units:
                           1         2         3
     Eigenvalues --   173.11196 176.02212 349.13408
           X            0.82316   0.56780   0.00000
           Y           -0.56780   0.82316   0.00000
           Z            0.00000   0.00000   1.00000
 This molecule is an asymmetric top.
 Rotational symmetry number  1.
 Rotational temperatures (Kelvin)      0.50033     0.49206     0.24808
 Rotational constants (GHZ):          10.42528    10.25292     5.16919
 Zero-point vibrational energy     122562.3 (Joules/Mol)
                                   29.29310 (Kcal/Mol)
 Warning -- explicit consideration of   1 degrees of freedom as
           vibrations may cause significant error
 Vibrational temperatures:    847.32   990.65  1053.15  1220.00  1378.76
          (Kelvin)           1444.17  1509.51  1525.68  1637.85  1797.18
                             1808.29  2094.57  2143.54  4766.91  5264.12

 Zero-point correction=                           0.046682 (Hartree/Particle)
 Thermal correction to Energy=                    0.050162
 Thermal correction to Enthalpy=                  0.051107
 Thermal correction to Gibbs Free Energy=         0.020572
 Sum of electronic and zero-point Energies=           -258.023278
 Sum of electronic and thermal Energies=              -258.019798
 Sum of electronic and thermal Enthalpies=            -258.018853
 Sum of electronic and thermal Free Energies=         -258.049388

                     E (Thermal)             CV                S
                      KCal/Mol        Cal/Mol-Kelvin    Cal/Mol-Kelvin
 Total                   31.477             11.412             64.265
 Electronic               0.000              0.000              0.000
 Translational            0.889              2.981             38.656
 Rotational               0.889              2.981             23.879
 Vibrational             29.700              5.451              1.730
 Vibration     1          0.946              1.055              0.469

 Normal termination of Gaussian 09 at Tue Nov 26 11:55:09 2013.
