 Gaussian 09, Revision D.01,
 Gaussian 09:  EM64L-G09RevD.01 24-Apr-2013

 --------------------------------------------
 #B2PLYP=FULL/3-21G opt=z-matrix freq density
 --------------------------------------------

 ------------------------------------------------------------------
 1H-tetrazole CH2N4 casno=288948 state=1 config=1 method=59 basis=2
 ------------------------------------------------------------------
 Symbolic Z-matrix:
 Charge =  0 Multiplicity = 1

 SCF Done:  E(RB2PLYP) =  -256.260695009     A.U. after   14 cycles
 E2(B2PLYP) =    -0.1820579816D+00 E(B2PLYP) =    -0.25644275299016D+03
 SCF Done:  E(RB2PLYP) =  -256.272833055     A.U. after   15 cycles
 E2(B2PLYP) =    -0.1928140917D+00 E(B2PLYP) =    -0.25646564714645D+03
 SCF Done:  E(RB2PLYP) =  -256.270552031     A.U. after   14 cycles
 E2(B2PLYP) =    -0.1972547414D+00 E(B2PLYP) =    -0.25646780677283D+03
 SCF Done:  E(RB2PLYP) =  -256.269161907     A.U. after   15 cycles
 E2(B2PLYP) =    -0.1974479317D+00 E(B2PLYP) =    -0.25646660983891D+03
 SCF Done:  E(RB2PLYP) =  -256.269755970     A.U. after   13 cycles
 E2(B2PLYP) =    -0.1976834005D+00 E(B2PLYP) =    -0.25646743937093D+03
 SCF Done:  E(RB2PLYP) =  -256.270698428     A.U. after   11 cycles
 E2(B2PLYP) =    -0.1976418565D+00 E(B2PLYP) =    -0.25646834028458D+03
 SCF Done:  E(RB2PLYP) =  -256.270738717     A.U. after   13 cycles
 E2(B2PLYP) =    -0.1974312108D+00 E(B2PLYP) =    -0.25646816992730D+03
 SCF Done:  E(RB2PLYP) =  -256.270558856     A.U. after   12 cycles
 E2(B2PLYP) =    -0.1978490965D+00 E(B2PLYP) =    -0.25646840795298D+03
 SCF Done:  E(RB2PLYP) =  -256.270444932     A.U. after   11 cycles
 E2(B2PLYP) =    -0.1979820033D+00 E(B2PLYP) =    -0.25646842693567D+03
 SCF Done:  E(RB2PLYP) =  -256.270667325     A.U. after   12 cycles
 E2(B2PLYP) =    -0.1976865077D+00 E(B2PLYP) =    -0.25646835383235D+03
 E2(B2PLYP) =    -0.1980055939D+00 E(B2PLYP) =    -0.25646843583012D+03
 SCF Done:  E(RB2PLYP) =  -256.270456673     A.U. after    9 cycles
 E2(B2PLYP) =    -0.1979812657D+00 E(B2PLYP) =    -0.25646843793824D+03
 SCF Done:  E(RB2PLYP) =  -256.270552120     A.U. after   11 cycles
 E2(B2PLYP) =    -0.1978854210D+00 E(B2PLYP) =    -0.25646843754068D+03
 SCF Done:  E(RB2PLYP) =  -256.270496961     A.U. after    9 cycles
 E2(B2PLYP) =    -0.1979422548D+00 E(B2PLYP) =    -0.25646843921576D+03
 SCF Done:  E(RB2PLYP) =  -256.270488418     A.U. after    9 cycles
 E2(B2PLYP) =    -0.1979508507D+00 E(B2PLYP) =    -0.25646843926873D+03
 SCF Done:  E(RB2PLYP) =  -256.270509026     A.U. after    9 cycles
 E2(B2PLYP) =    -0.1979302786D+00 E(B2PLYP) =    -0.25646843930482D+03
 SCF Done:  E(RB2PLYP) =  -256.270506957     A.U. after    8 cycles
 E2(B2PLYP) =    -0.1979324515D+00 E(B2PLYP) =    -0.25646843940863D+03
 SCF Done:  E(RB2PLYP) =  -256.270474210     A.U. after   10 cycles
 E2(B2PLYP) =    -0.1979641482D+00 E(B2PLYP) =    -0.25646843835786D+03
 SCF Done:  E(RB2PLYP) =  -256.270497471     A.U. after    8 cycles
 E2(B2PLYP) =    -0.1979420160D+00 E(B2PLYP) =    -0.25646843948673D+03
 SCF Done:  E(RB2PLYP) =  -256.270509877     A.U. after    9 cycles
 E2(B2PLYP) =    -0.1979295601D+00 E(B2PLYP) =    -0.25646843943683D+03
 Optimization completed.
    -- Stationary point found.
 Normal termination of Gaussian 09 at Wed Nov 27 01:51:05 2013.

 ----------------------------------------------------------------------
 #N Geom=AllCheck Guess=TCheck SCRF=Check GenChk RB2PLYP-Full/3-21G Fre
 q
 ----------------------------------------------------------------------

 Structure from the checkpoint file:  "/tmp/rdj3/g09-23219/Gau-15019.chk"
 ------------------------------------------------------------------
 1H-tetrazole CH2N4 casno=288948 state=1 config=1 method=59 basis=2
 ------------------------------------------------------------------
 Charge =  0 Multiplicity = 1

                         Standard orientation:
 ---------------------------------------------------------------------
 Center     Atomic      Atomic             Coordinates (Angstroms)
 Number     Number       Type             X           Y           Z
 ---------------------------------------------------------------------
      1          6           0        1.081361    0.263341    0.000000
      2          7           0        0.000000    1.091383    0.000000
      3          7           0       -1.180584    0.290494    0.000000
      4          7           0       -0.748074   -0.978608    0.000000
      5          7           0        0.711899   -1.015977    0.000000
      6          1           0        2.097323    0.608122    0.000000
      7          1           0       -0.068168    2.100794    0.000000
 ---------------------------------------------------------------------

 SCF Done:  E(RB2PLYP) =  -256.270509877     A.U. after    1 cycles
 E2(B2PLYP) =    -0.1979295601D+00 E(B2PLYP) =    -0.25646843943682D+03
 E2(B2PLYP) =    -0.1979295601D+00 E(B2PLYP) =    -0.25646843943682D+03

 The electronic state is 1-A'.
 Alpha  occ. eigenvalues --  -14.89401 -14.88178 -14.86270 -14.82360 -10.68260
 Alpha  occ. eigenvalues --   -1.27359  -1.06522  -1.03410  -0.76802  -0.75525
 Alpha  occ. eigenvalues --   -0.68416  -0.56284  -0.55680  -0.44782  -0.37812
 Alpha  occ. eigenvalues --   -0.37751  -0.36519  -0.36176
 Alpha virt. eigenvalues --    0.02407   0.07154   0.13488   0.16048   0.23003
 Alpha virt. eigenvalues --    0.26468   0.32792   0.42672   0.47214   0.76807
 Alpha virt. eigenvalues --    0.78805   0.89847   0.93527   1.03184   1.13289

 Mulliken charges:
               1
     1  C    0.318893
     2  N   -0.529348
     3  N   -0.029253
     4  N   -0.076452
     5  N   -0.329122
     6  H    0.273646
     7  H    0.371636
 Sum of Mulliken charges =   0.00000

 Dipole moment (field-independent basis, Debye):
    X=              2.4164    Y=              4.9049    Z=              0.0000  Tot=              5.4678
 Quadrupole moment (field-independent basis, Debye-Ang):
   XX=            -29.2654   YY=            -26.5924   ZZ=            -28.6868
   XY=              2.0179   XZ=              0.0000   YZ=              0.0000

  Exact polarizability:  35.151   1.405  34.899   0.000   0.000  11.234
 Approx polarizability:  51.061  -0.521  57.306   0.000   0.000  11.521

                      1                      2                      3
                     A"                     A"                     A"
 Frequencies --    616.0988               672.0099               677.3647
 Red. masses --      2.5623                 1.4535                 7.6571
 Frc consts  --      0.5730                 0.3867                 2.0699
 IR Inten    --     97.3547                49.4166                14.2257

                      4                      5                      6
                     A'                     A'                     A"
 Frequencies --    735.3504               833.8803               915.8931
 Red. masses --     10.6770                 6.7459                 1.3732
 Frc consts  --      3.4016                 2.7637                 0.6787
 IR Inten    --     11.1202                15.6217                17.2555

                      7                      8                      9
                     A'                     A'                     A'
 Frequencies --    956.3036               999.7649              1022.0489
 Red. masses --      4.7374                 7.4732                12.0915
 Frc consts  --      2.5526                 4.4010                 7.4417
 IR Inten    --      8.3031                 6.4854                 0.0159

                     10                     11                     12
                     A'                     A'                     A'
 Frequencies --   1134.9413              1208.5441              1356.2019
 Red. masses --      2.1376                 2.1853                 2.4089
 Frc consts  --      1.6223                 1.8805                 2.6104
 IR Inten    --     11.7426                10.6464                 4.8933

                     13                     14                     15
                     A'                     A'                     A'
 Frequencies --   1427.3347              3343.2063              3603.8807
 Red. masses --      1.9726                 1.0988                 1.0847
 Frc consts  --      2.3678                 7.2360                 8.3007
 IR Inten    --     42.7440                 2.2766               104.8379

 - Thermochemistry -
 -------------------
 Temperature   298.150 Kelvin.  Pressure   1.00000 Atm.
 Atom     1 has atomic number  6 and mass  12.00000

 Molecular mass:    70.02795 amu.
 Principal axes and moments of inertia in atomic units:
                           1         2         3
     Eigenvalues --   183.01892 188.86137 371.88029
           X            0.99251   0.12216   0.00000
           Y           -0.12216   0.99251   0.00000
           Z            0.00000   0.00000   1.00000
 This molecule is an asymmetric top.
 Rotational symmetry number  1.
 Rotational temperatures (Kelvin)      0.47325     0.45861     0.23291
 Rotational constants (GHZ):           9.86095     9.55590     4.85302
 Zero-point vibrational energy     116652.8 (Joules/Mol)
                                   27.88069 (Kcal/Mol)
 Warning -- explicit consideration of   1 degrees of freedom as
           vibrations may cause significant error
 Vibrational temperatures:    886.43   966.87   974.58  1058.00  1199.77
          (Kelvin)           1317.76  1375.91  1438.44  1470.50  1632.93
                             1738.82  1951.27  2053.61  4810.12  5185.17

 Zero-point correction=                           0.044431 (Hartree/Particle)
 Thermal correction to Energy=                    0.048048
 Thermal correction to Enthalpy=                  0.048992
 Thermal correction to Gibbs Free Energy=         0.018193
 Sum of electronic and zero-point Energies=           -256.424009
 Sum of electronic and thermal Energies=              -256.420391
 Sum of electronic and thermal Enthalpies=            -256.419447
 Sum of electronic and thermal Free Energies=         -256.450247

                     E (Thermal)             CV                S
                      KCal/Mol        Cal/Mol-Kelvin    Cal/Mol-Kelvin
 Total                   30.151             12.383             64.823
 Electronic               0.000              0.000              0.000
 Translational            0.889              2.981             38.656
 Rotational               0.889              2.981             24.067
 Vibrational             28.373              6.422              2.100
 Vibration     1          0.976              0.998              0.423

 Normal termination of Gaussian 09 at Wed Nov 27 01:51:17 2013.
