 Gaussian 09, Revision D.01,
 Gaussian 09:  EM64L-G09RevD.01 24-Apr-2013

 -----------------------------------------------
 #B2PLYP=FULL/6-31+G** opt=z-matrix freq density
 -----------------------------------------------

 ------------------------------------------------------------------
 1H-tetrazole CH2N4 casno=288948 state=1 config=1 method=59 basis=4
 ------------------------------------------------------------------
 Symbolic Z-matrix:
 Charge =  0 Multiplicity = 1

 SCF Done:  E(RB2PLYP) =  -257.762124797     A.U. after   13 cycles
 E2(B2PLYP) =    -0.2707999185D+00 E(B2PLYP) =    -0.25803292471580D+03
 SCF Done:  E(RB2PLYP) =  -257.762130718     A.U. after   12 cycles
 E2(B2PLYP) =    -0.2759448518D+00 E(B2PLYP) =    -0.25803807556991D+03
 SCF Done:  E(RB2PLYP) =  -257.761544688     A.U. after   11 cycles
 E2(B2PLYP) =    -0.2766679870D+00 E(B2PLYP) =    -0.25803821267503D+03
 SCF Done:  E(RB2PLYP) =  -257.761448806     A.U. after   11 cycles
 E2(B2PLYP) =    -0.2763190569D+00 E(B2PLYP) =    -0.25803776786303D+03
 SCF Done:  E(RB2PLYP) =  -257.761408725     A.U. after   10 cycles
 E2(B2PLYP) =    -0.2768268649D+00 E(B2PLYP) =    -0.25803823559013D+03
 SCF Done:  E(RB2PLYP) =  -257.761406970     A.U. after   11 cycles
 E2(B2PLYP) =    -0.2767745570D+00 E(B2PLYP) =    -0.25803818152718D+03
 SCF Done:  E(RB2PLYP) =  -257.761446165     A.U. after    9 cycles
 E2(B2PLYP) =    -0.2767942304D+00 E(B2PLYP) =    -0.25803824039545D+03
 SCF Done:  E(RB2PLYP) =  -257.761430145     A.U. after   10 cycles
 E2(B2PLYP) =    -0.2767271022D+00 E(B2PLYP) =    -0.25803815724676D+03
 SCF Done:  E(RB2PLYP) =  -257.761459074     A.U. after    9 cycles
 E2(B2PLYP) =    -0.2767818917D+00 E(B2PLYP) =    -0.25803824096617D+03
 SCF Done:  E(RB2PLYP) =  -257.761463343     A.U. after    8 cycles
 E2(B2PLYP) =    -0.2767776932D+00 E(B2PLYP) =    -0.25803824103597D+03
 E2(B2PLYP) =    -0.2767323442D+00 E(B2PLYP) =    -0.25803820313265D+03
 E2(B2PLYP) =    -0.2768025265D+00 E(B2PLYP) =    -0.25803822805415D+03
 SCF Done:  E(RB2PLYP) =  -257.753915579     A.U. after   13 cycles
 E2(B2PLYP) =    -0.2784436215D+00 E(B2PLYP) =    -0.25803235920008D+03
 SCF Done:  E(RB2PLYP) =  -257.760382689     A.U. after   13 cycles
 E2(B2PLYP) =    -0.2761100682D+00 E(B2PLYP) =    -0.25803649275755D+03
 SCF Done:  E(RB2PLYP) =  -257.755566270     A.U. after   14 cycles
 E2(B2PLYP) =    -0.2787352296D+00 E(B2PLYP) =    -0.25803430149972D+03
 SCF Done:  E(RB2PLYP) =  -257.760936408     A.U. after   13 cycles
 E2(B2PLYP) =    -0.2763872761D+00 E(B2PLYP) =    -0.25803732368374D+03
 SCF Done:  E(RB2PLYP) =  -257.755614482     A.U. after   13 cycles
 E2(B2PLYP) =    -0.2783995160D+00 E(B2PLYP) =    -0.25803401399826D+03
 SCF Done:  E(RB2PLYP) =  -257.761463237     A.U. after    2 cycles
 E2(B2PLYP) =    -0.2767777992D+00 E(B2PLYP) =    -0.25803824103657D+03
 SCF Done:  E(RB2PLYP) =  -257.761738090     A.U. after   10 cycles
 E2(B2PLYP) =    -0.2764800498D+00 E(B2PLYP) =    -0.25803821813979D+03
 SCF Done:  E(RB2PLYP) =  -257.761467559     A.U. after    7 cycles
 E2(B2PLYP) =    -0.2767735041D+00 E(B2PLYP) =    -0.25803824106293D+03
 SCF Done:  E(RB2PLYP) =  -257.761455683     A.U. after    8 cycles
 E2(B2PLYP) =    -0.2767853403D+00 E(B2PLYP) =    -0.25803824102303D+03
 Optimization completed.
    -- Stationary point found.
 Normal termination of Gaussian 09 at Wed Nov 27 02:01:03 2013.

 ----------------------------------------------------------------------
 #N Geom=AllCheck Guess=TCheck SCRF=Check GenChk RB2PLYP-Full/6-31+G(d,
 p) Freq
 ----------------------------------------------------------------------

 Structure from the checkpoint file:  "/tmp/rdj3/g09-23219/Gau-20965.chk"
 ------------------------------------------------------------------
 1H-tetrazole CH2N4 casno=288948 state=1 config=1 method=59 basis=4
 ------------------------------------------------------------------
 Charge =  0 Multiplicity = 1

                         Standard orientation:
 ---------------------------------------------------------------------
 Center     Atomic      Atomic             Coordinates (Angstroms)
 Number     Number       Type             X           Y           Z
 ---------------------------------------------------------------------
      1          6           0        1.069961    0.238590    0.000000
      2          7           0        0.000000    1.057390    0.000000
      3          7           0       -1.124886    0.303529    0.000000
      4          7           0       -0.723438   -0.932008    0.000000
      5          7           0        0.640582   -1.008870    0.000000
      6          1           0        2.095885    0.563856    0.000000
      7          1           0       -0.061456    2.064315    0.000000
 ---------------------------------------------------------------------

 SCF Done:  E(RB2PLYP) =  -257.761455683     A.U. after    1 cycles
 E2(B2PLYP) =    -0.2767853406D+00 E(B2PLYP) =    -0.25803824102334D+03
 E2(B2PLYP) =    -0.2767853406D+00 E(B2PLYP) =    -0.25803824102334D+03

 The electronic state is 1-A'.
 Alpha  occ. eigenvalues --  -14.98075 -14.95295 -14.93547 -14.90118 -10.73576
 Alpha  occ. eigenvalues --   -1.29850  -1.08703  -1.03012  -0.78622  -0.76891
 Alpha  occ. eigenvalues --   -0.69114  -0.58352  -0.58022  -0.46886  -0.39411
 Alpha  occ. eigenvalues --   -0.38881  -0.37771  -0.36580
 Alpha virt. eigenvalues --    0.01294   0.02244   0.04769   0.05348   0.06655
 Alpha virt. eigenvalues --    0.08845   0.10274   0.11894   0.14155   0.15755
 Alpha virt. eigenvalues --    0.17239   0.18888   0.19758   0.21854   0.23143

 Mulliken charges:
               1
     1  C    0.061850
     2  N   -0.295783
     3  N   -0.019446
     4  N   -0.021120
     5  N   -0.257942
     6  H    0.188228
     7  H    0.344214
 Sum of Mulliken charges =   0.00000

 Dipole moment (field-independent basis, Debye):
    X=              2.6476    Y=              4.9504    Z=              0.0000  Tot=              5.6139
 Quadrupole moment (field-independent basis, Debye-Ang):
   XX=            -29.7641   YY=            -27.1437   ZZ=            -29.1430
   XY=              1.9705   XZ=              0.0000   YZ=              0.0000

  Exact polarizability:  44.033   0.419  43.558   0.000   0.000  24.201
 Approx polarizability:  54.549  -0.169  57.647   0.000   0.000  28.953

                      1                      2                      3
                     A"                     A"                     A"
 Frequencies --    566.4968               685.3683               724.7860
 Red. masses --      1.9087                 1.9440                 7.7177
 Frc consts  --      0.3609                 0.5380                 2.3887
 IR Inten    --     82.2816                12.2120                 9.4455

                      4                      5                      6
                     A"                     A'                     A'
 Frequencies --    844.0390               964.9584              1007.9466
 Red. masses --      1.3129                 5.0978                 6.5951
 Frc consts  --      0.5511                 2.7967                 3.9477
 IR Inten    --     25.4666                 4.1163                 0.3729

                      7                      8                      9
                     A'                     A'                     A'
 Frequencies --   1051.8432              1068.4960              1152.4821
 Red. masses --      5.1649                 3.9509                 1.8174
 Frc consts  --      3.3668                 2.6576                 1.4223
 IR Inten    --     14.7973                31.1437                15.5531

                     10                     11                     12
                     A'                     A'                     A'
 Frequencies --   1262.5197              1270.3519              1467.7350
 Red. masses --      5.6624                 2.9636                 3.1351
 Frc consts  --      5.3177                 2.8178                 3.9792
 IR Inten    --     16.3059                 0.5381                11.0368

                     13                     14                     15
                     A'                     A'                     A'
 Frequencies --   1505.9261              3338.7203              3691.6555
 Red. masses --      2.9706                 1.1006                 1.0843
 Frc consts  --      3.9692                 7.2284                 8.7065
 IR Inten    --     19.3349                 2.7173               107.3695

 - Thermochemistry -
 -------------------
 Temperature   298.150 Kelvin.  Pressure   1.00000 Atm.
 Atom     1 has atomic number  6 and mass  12.00000

 Molecular mass:    70.02795 amu.
 Principal axes and moments of inertia in atomic units:
                           1         2         3
     Eigenvalues --   172.68067 175.38376 348.06442
           X            0.85136   0.52458   0.00000
           Y           -0.52458   0.85136   0.00000
           Z            0.00000   0.00000   1.00000
 This molecule is an asymmetric top.
 Rotational symmetry number  1.
 Rotational temperatures (Kelvin)      0.50158     0.49385     0.24884
 Rotational constants (GHZ):          10.45132    10.29024     5.18508
 Zero-point vibrational energy     123235.3 (Joules/Mol)
                                   29.45393 (Kcal/Mol)
 Warning -- explicit consideration of   1 degrees of freedom as
           vibrations may cause significant error
 Vibrational temperatures:    815.06   986.09  1042.80  1214.38  1388.36
          (Kelvin)           1450.21  1513.37  1537.33  1658.16  1816.48
                             1827.75  2111.74  2166.69  4803.67  5311.46

 Zero-point correction=                           0.046938 (Hartree/Particle)
 Thermal correction to Energy=                    0.050431
 Thermal correction to Enthalpy=                  0.051375
 Thermal correction to Gibbs Free Energy=         0.020825
 Sum of electronic and zero-point Energies=           -257.991303
 Sum of electronic and thermal Energies=              -257.987810
 Sum of electronic and thermal Enthalpies=            -257.986866
 Sum of electronic and thermal Free Energies=         -258.017416

                     E (Thermal)             CV                S
                      KCal/Mol        Cal/Mol-Kelvin    Cal/Mol-Kelvin
 Total                   31.646             11.430             64.297
 Electronic               0.000              0.000              0.000
 Translational            0.889              2.981             38.656
 Rotational               0.889              2.981             23.870
 Vibrational             29.868              5.468              1.770
 Vibration     1          0.922              1.104              0.511

 Normal termination of Gaussian 09 at Wed Nov 27 02:02:42 2013.
