 Gaussian 09, Revision D.01,
 Gaussian 09:  EM64L-G09RevD.01 24-Apr-2013

 ----------------------------------------------
 #B2PLYP=FULL/cc-pVDZ opt=z-matrix freq density
 ----------------------------------------------

 ------------------------------------------------------------------
 1H-tetrazole CH2N4 casno=288948 state=1 config=1 method=59 basis=5
 ------------------------------------------------------------------
 Symbolic Z-matrix:
 Charge =  0 Multiplicity = 1

 SCF Done:  E(RB2PLYP) =  -257.770398136     A.U. after   14 cycles
 E2(B2PLYP) =    -0.2618502106D+00 E(B2PLYP) =    -0.25803224834636D+03
 SCF Done:  E(RB2PLYP) =  -257.770448655     A.U. after   12 cycles
 E2(B2PLYP) =    -0.2672215419D+00 E(B2PLYP) =    -0.25803767019662D+03
 SCF Done:  E(RB2PLYP) =  -257.769909897     A.U. after   11 cycles
 E2(B2PLYP) =    -0.2678750008D+00 E(B2PLYP) =    -0.25803778489742D+03
 SCF Done:  E(RB2PLYP) =  -257.769645792     A.U. after   12 cycles
 E2(B2PLYP) =    -0.2677736018D+00 E(B2PLYP) =    -0.25803741939387D+03
 SCF Done:  E(RB2PLYP) =  -257.769807119     A.U. after   10 cycles
 E2(B2PLYP) =    -0.2680033403D+00 E(B2PLYP) =    -0.25803781045952D+03
 SCF Done:  E(RB2PLYP) =  -257.769875877     A.U. after   12 cycles
 E2(B2PLYP) =    -0.2677761299D+00 E(B2PLYP) =    -0.25803765200646D+03
 SCF Done:  E(RB2PLYP) =  -257.769834025     A.U. after    9 cycles
 E2(B2PLYP) =    -0.2679780396D+00 E(B2PLYP) =    -0.25803781206430D+03
 SCF Done:  E(RB2PLYP) =  -257.769839275     A.U. after   10 cycles
 E2(B2PLYP) =    -0.2679352651D+00 E(B2PLYP) =    -0.25803777453965D+03
 SCF Done:  E(RB2PLYP) =  -257.769852006     A.U. after    8 cycles
 E2(B2PLYP) =    -0.2679603054D+00 E(B2PLYP) =    -0.25803781231095D+03
 SCF Done:  E(RB2PLYP) =  -257.769827649     A.U. after   11 cycles
 E2(B2PLYP) =    -0.2678368872D+00 E(B2PLYP) =    -0.25803766453606D+03
 SCF Done:  E(RB2PLYP) =  -257.769855172     A.U. after    7 cycles
 E2(B2PLYP) =    -0.2679571917D+00 E(B2PLYP) =    -0.25803781236361D+03
 SCF Done:  E(RB2PLYP) =  -257.769857191     A.U. after    7 cycles
 E2(B2PLYP) =    -0.2679551446D+00 E(B2PLYP) =    -0.25803781233567D+03
 SCF Done:  E(RB2PLYP) =  -257.769855513     A.U. after    7 cycles
 E2(B2PLYP) =    -0.2679568719D+00 E(B2PLYP) =    -0.25803781238476D+03
 Optimization completed.
    -- Stationary point found.
 Normal termination of Gaussian 09 at Wed Nov 27 02:04:12 2013.

 ----------------------------------------------------------------------
 #N Geom=AllCheck Guess=TCheck SCRF=Check GenChk RB2PLYP-Full/CC-pVDZ F
 req
 ----------------------------------------------------------------------

 Structure from the checkpoint file:  "/tmp/rdj3/g09-23219/Gau-23286.chk"
 ------------------------------------------------------------------
 1H-tetrazole CH2N4 casno=288948 state=1 config=1 method=59 basis=5
 ------------------------------------------------------------------
 Charge =  0 Multiplicity = 1

                         Standard orientation:
 ---------------------------------------------------------------------
 Center     Atomic      Atomic             Coordinates (Angstroms)
 Number     Number       Type             X           Y           Z
 ---------------------------------------------------------------------
      1          6           0        1.069904    0.234545    0.000000
      2          7           0        0.000000    1.057965    0.000000
      3          7           0       -1.123219    0.306313    0.000000
      4          7           0       -0.724999   -0.928447    0.000000
      5          7           0        0.638789   -1.013183    0.000000
      6          1           0        2.103592    0.564484    0.000000
      7          1           0       -0.057010    2.069707    0.000000
 ---------------------------------------------------------------------

 SCF Done:  E(RB2PLYP) =  -257.769855513     A.U. after    1 cycles
 E2(B2PLYP) =    -0.2679568735D+00 E(B2PLYP) =    -0.25803781238640D+03
 E2(B2PLYP) =    -0.2679568735D+00 E(B2PLYP) =    -0.25803781238640D+03

 The electronic state is 1-A'.
 Alpha  occ. eigenvalues --  -14.96344 -14.93227 -14.91426 -14.88241 -10.72566
 Alpha  occ. eigenvalues --   -1.28636  -1.07498  -1.01775  -0.77317  -0.75698
 Alpha  occ. eigenvalues --   -0.67815  -0.57072  -0.56958  -0.45656  -0.38242
 Alpha  occ. eigenvalues --   -0.37599  -0.36517  -0.35439
 Alpha virt. eigenvalues --    0.04190   0.08179   0.08439   0.12531   0.25194
 Alpha virt. eigenvalues --    0.25996   0.32997   0.36467   0.46505   0.52802
 Alpha virt. eigenvalues --    0.53733   0.62357   0.65845   0.67525   0.74190

 Mulliken charges:
               1
     1  C    0.195579
     2  N   -0.051081
     3  N   -0.067145
     4  N   -0.087802
     5  N   -0.180684
     6  H    0.060163
     7  H    0.130970
 Sum of Mulliken charges =   0.00000

 Dipole moment (field-independent basis, Debye):
    X=              2.3930    Y=              4.6718    Z=              0.0000  Tot=              5.2490
 Quadrupole moment (field-independent basis, Debye-Ang):
   XX=            -28.8268   YY=            -26.1700   ZZ=            -28.1261
   XY=              1.7359   XZ=              0.0000   YZ=              0.0000

  Exact polarizability:  37.873   1.177  36.954   0.000   0.000  16.003
 Approx polarizability:  51.156   0.327  53.830   0.000   0.000  20.829

                      1                      2                      3
                     A"                     A"                     A"
 Frequencies --    576.1545               692.3413               739.2599
 Red. masses --      1.7608                 2.0462                 7.4701
 Frc consts  --      0.3444                 0.5779                 2.4053
 IR Inten    --     75.4597                 7.2441                 9.0786

                      4                      5                      6
                     A"                     A'                     A'
 Frequencies --    852.7489               964.7404              1008.2868
 Red. masses --      1.3551                 4.2967                 5.7386
 Frc consts  --      0.5806                 2.3562                 3.4374
 IR Inten    --     18.3348                 3.6381                 0.7243

                      7                      8                      9
                     A'                     A'                     A'
 Frequencies --   1054.2175              1064.5187              1142.3344
 Red. masses --      4.4699                 3.3449                 2.0212
 Frc consts  --      2.9269                 2.2332                 1.5540
 IR Inten    --     17.1207                27.9176                15.3272

                     10                     11                     12
                     A'                     A'                     A'
 Frequencies --   1256.9519              1272.3938              1462.6135
 Red. masses --      2.4553                11.5276                 3.1452
 Frc consts  --      2.2855                10.9960                 3.9643
 IR Inten    --      3.2650                11.2948                 9.9609

                     13                     14                     15
                     A'                     A'                     A'
 Frequencies --   1498.6562              3316.6330              3656.1267
 Red. masses --      3.5931                 1.1011                 1.0849
 Frc consts  --      4.7547                 7.1360                 8.5442
 IR Inten    --     14.1472                 1.9440                98.9746

 - Thermochemistry -
 -------------------
 Temperature   298.150 Kelvin.  Pressure   1.00000 Atm.
 Atom     1 has atomic number  6 and mass  12.00000

 Molecular mass:    70.02795 amu.
 Principal axes and moments of inertia in atomic units:
                           1         2         3
     Eigenvalues --   172.47742 175.75461 348.23203
           X            0.79674   0.60433   0.00000
           Y           -0.60433   0.79674   0.00000
           Z            0.00000   0.00000   1.00000
 This molecule is an asymmetric top.
 Rotational symmetry number  1.
 Rotational temperatures (Kelvin)      0.50217     0.49281     0.24872
 Rotational constants (GHZ):          10.46364    10.26853     5.18258
 Zero-point vibrational energy     122964.0 (Joules/Mol)
                                   29.38910 (Kcal/Mol)
 Warning -- explicit consideration of   1 degrees of freedom as
           vibrations may cause significant error
 Vibrational temperatures:    828.96   996.12  1063.63  1226.91  1388.04
          (Kelvin)           1450.70  1516.78  1531.60  1643.56  1808.47
                             1830.69  2104.37  2156.23  4771.89  5260.34

 Zero-point correction=                           0.046835 (Hartree/Particle)
 Thermal correction to Energy=                    0.050313
 Thermal correction to Enthalpy=                  0.051257
 Thermal correction to Gibbs Free Energy=         0.020728
 Sum of electronic and zero-point Energies=           -257.990978
 Sum of electronic and thermal Energies=              -257.987500
 Sum of electronic and thermal Enthalpies=            -257.986555
 Sum of electronic and thermal Free Energies=         -258.017084

                     E (Thermal)             CV                S
                      KCal/Mol        Cal/Mol-Kelvin    Cal/Mol-Kelvin
 Total                   31.572             11.370             64.254
 Electronic               0.000              0.000              0.000
 Translational            0.889              2.981             38.656
 Rotational               0.889              2.981             23.872
 Vibrational             29.794              5.408              1.726
 Vibration     1          0.933              1.083              0.493

 Normal termination of Gaussian 09 at Wed Nov 27 02:05:03 2013.
