 Gaussian 09, Revision D.01,
 Gaussian 09:  EM64L-G09RevD.01 24-Apr-2013

 ------------------------------------------
 #B2PLYP=FULL/6-31G(2df,p) opt freq density
 ------------------------------------------

 -------------------------------------------------------------------
 1H-tetrazole CH2N4 casno=288948 state=1 config=1 method=59 basis=19
 -------------------------------------------------------------------
 Symbolic Z-matrix:
 Charge =  0 Multiplicity = 1

 SCF Done:  E(RB2PLYP) =  -257.767881974     A.U. after   14 cycles
 E2(B2PLYP) =    -0.3113056641D+00 E(B2PLYP) =    -0.25807918763834D+03
 SCF Done:  E(RB2PLYP) =  -257.767700873     A.U. after   12 cycles
 E2(B2PLYP) =    -0.3153289784D+00 E(B2PLYP) =    -0.25808302985118D+03
 SCF Done:  E(RB2PLYP) =  -257.767166826     A.U. after   10 cycles
 E2(B2PLYP) =    -0.3159774918D+00 E(B2PLYP) =    -0.25808314431800D+03
 SCF Done:  E(RB2PLYP) =  -257.767035870     A.U. after   10 cycles
 E2(B2PLYP) =    -0.3161223515D+00 E(B2PLYP) =    -0.25808315822201D+03
 SCF Done:  E(RB2PLYP) =  -257.767115709     A.U. after    9 cycles
 E2(B2PLYP) =    -0.3160500549D+00 E(B2PLYP) =    -0.25808316576410D+03
 SCF Done:  E(RB2PLYP) =  -257.767156479     A.U. after    8 cycles
 E2(B2PLYP) =    -0.3160106958D+00 E(B2PLYP) =    -0.25808316717502D+03
 Optimization completed.
    -- Stationary point found.
 Normal termination of Gaussian 09 at Mon Dec 16 15:56:53 2013.

 ----------------------------------------------------------------------
 #N Geom=AllCheck Guess=TCheck SCRF=Check GenChk RB2PLYP-Full/6-31G(2df
 ,p) Freq
 ----------------------------------------------------------------------

 Structure from the checkpoint file:  "/tmp/rdj3/g09-18029/Gau-16932.chk"
 -------------------------------------------------------------------
 1H-tetrazole CH2N4 casno=288948 state=1 config=1 method=59 basis=19
 -------------------------------------------------------------------
 Charge =  0 Multiplicity = 1

                         Standard orientation:
 ---------------------------------------------------------------------
 Center     Atomic      Atomic             Coordinates (Angstroms)
 Number     Number       Type             X           Y           Z
 ---------------------------------------------------------------------
      1          6           0        1.065251    0.236920    0.000000
      2          7           0        0.000000    1.053644    0.000000
      3          7           0       -1.120580    0.303490    0.000000
      4          7           0       -0.721352   -0.928234    0.000000
      5          7           0        0.639476   -1.006948    0.000000
      6          1           0        2.088552    0.567089    0.000000
      7          1           0       -0.062866    2.057732    0.000000
 ---------------------------------------------------------------------

 SCF Done:  E(RB2PLYP) =  -257.767156479     A.U. after    1 cycles
 E2(B2PLYP) =    -0.3160106978D+00 E(B2PLYP) =    -0.25808316717704D+03
 E2(B2PLYP) =    -0.3160106978D+00 E(B2PLYP) =    -0.25808316717704D+03

 The electronic state is 1-A'.
 Alpha  occ. eigenvalues --  -14.96183 -14.93290 -14.91628 -14.88172 -10.72045
 Alpha  occ. eigenvalues --   -1.28490  -1.07349  -1.01573  -0.77305  -0.75631
 Alpha  occ. eigenvalues --   -0.67931  -0.57075  -0.57058  -0.45675  -0.38200
 Alpha  occ. eigenvalues --   -0.37550  -0.36469  -0.35339
 Alpha virt. eigenvalues --    0.04516   0.08683   0.11417   0.16843   0.25662
 Alpha virt. eigenvalues --    0.26646   0.33535   0.35448   0.46429   0.51604
 Alpha virt. eigenvalues --    0.54083   0.55450   0.59395   0.62586   0.64174

 Mulliken charges:
               1
     1  C    0.060688
     2  N   -0.202016
     3  N   -0.069635
     4  N   -0.085460
     5  N   -0.197478
     6  H    0.182768
     7  H    0.311134
 Sum of Mulliken charges =   0.00000

 Dipole moment (field-independent basis, Debye):
    X=              2.4431    Y=              4.6676    Z=              0.0000  Tot=              5.2683
 Quadrupole moment (field-independent basis, Debye-Ang):
   XX=            -28.5766   YY=            -25.9154   ZZ=            -28.1087
   XY=              1.7673   XZ=              0.0000   YZ=              0.0000

  Exact polarizability:  38.790   0.997  37.999   0.000   0.000  18.275
 Approx polarizability:  52.451   0.217  55.045   0.000   0.000  25.003

                      1                      2                      3
                     A"                     A"                     A"
 Frequencies --    590.8999               696.9881               744.1332
 Red. masses --      1.7205                 2.0421                 8.1179
 Frc consts  --      0.3539                 0.5845                 2.6485
 IR Inten    --     77.7945                 7.3303                 8.5050

                      4                      5                      6
                     A"                     A'                     A'
 Frequencies --    870.8743               971.2438              1014.1643
 Red. masses --      1.3599                 4.7968                 6.1375
 Frc consts  --      0.6077                 2.6660                 3.7193
 IR Inten    --     13.9013                 4.0750                 0.9393

                      7                      8                      9
                     A'                     A'                     A'
 Frequencies --   1062.2258              1073.7929              1156.1418
 Red. masses --      5.5555                 3.4747                 1.8850
 Frc consts  --      3.6933                 2.3605                 1.4845
 IR Inten    --     12.8555                30.9135                14.3357

                     10                     11                     12
                     A'                     A'                     A'
 Frequencies --   1263.9879              1273.0995              1463.0542
 Red. masses --      2.9704                 5.9648                 3.1027
 Frc consts  --      2.7961                 5.6960                 3.9130
 IR Inten    --      9.4782                 4.2184                10.1494

                     13                     14                     15
                     A'                     A'                     A'
 Frequencies --   1502.0419              3322.4223              3692.0583
 Red. masses --      3.1518                 1.1003                 1.0838
 Frc consts  --      4.1896                 7.1558                 8.7041
 IR Inten    --     17.5729                 1.7311                98.7499

 - Thermochemistry -
 -------------------
 Temperature   298.150 Kelvin.  Pressure   1.00000 Atm.
 Atom     1 has atomic number  6 and mass  12.00000

 Molecular mass:    70.02795 amu.
 Principal axes and moments of inertia in atomic units:
                           1         2         3
     Eigenvalues --   171.40930 174.35203 345.76133
           X            0.82162   0.57003   0.00000
           Y           -0.57003   0.82162   0.00000
           Z            0.00000   0.00000   1.00000
 This molecule is an asymmetric top.
 Rotational symmetry number  1.
 Rotational temperatures (Kelvin)      0.50530     0.49678     0.25050
 Rotational constants (GHZ):          10.52884    10.35113     5.21962
 Zero-point vibrational energy     123796.3 (Joules/Mol)
                                   29.58803 (Kcal/Mol)
 Warning -- explicit consideration of   1 degrees of freedom as
           vibrations may cause significant error
 Vibrational temperatures:    850.17  1002.81  1070.64  1252.99  1397.40
          (Kelvin)           1459.15  1528.30  1544.95  1663.43  1818.59
                             1831.70  2105.01  2161.10  4780.22  5312.04

 Zero-point correction=                           0.047152 (Hartree/Particle)
 Thermal correction to Energy=                    0.050608
 Thermal correction to Enthalpy=                  0.051552
 Thermal correction to Gibbs Free Energy=         0.021063
 Sum of electronic and zero-point Energies=           -258.036016
 Sum of electronic and thermal Energies=              -258.032559
 Sum of electronic and thermal Enthalpies=            -258.031615
 Sum of electronic and thermal Free Energies=         -258.062104

                     E (Thermal)             CV                S
                      KCal/Mol        Cal/Mol-Kelvin    Cal/Mol-Kelvin
 Total                   31.757             11.248             64.169
 Electronic               0.000              0.000              0.000
 Translational            0.889              2.981             38.656
 Rotational               0.889              2.981             23.850
 Vibrational             29.980              5.287              1.663
 Vibration     1          0.948              1.051              0.466

 Optimization completed.
    -- Stationary point found.
 Normal termination of Gaussian 09 at Mon Dec 16 16:03:32 2013.
