 Gaussian 09, Revision D.01,
 Gaussian 09:  EM64L-G09RevD.01 24-Apr-2013

 ----------------------------------------------
 #B2PLYP=FULL/6-31G** opt=z-matrix freq density
 ----------------------------------------------

 ------------------------------------------------------------------
 1H-tetrazole CH2N4 casno=288948 state=1 config=1 method=59 basis=3
 ------------------------------------------------------------------
 Symbolic Z-matrix:
 Charge =  0 Multiplicity = 1

 SCF Done:  E(RB2PLYP) =  -257.752238543     A.U. after   14 cycles
 E2(B2PLYP) =    -0.2669804692D+00 E(B2PLYP) =    -0.25801921901188D+03
 SCF Done:  E(RB2PLYP) =  -257.752256520     A.U. after   12 cycles
 E2(B2PLYP) =    -0.2719658007D+00 E(B2PLYP) =    -0.25802422232067D+03
 SCF Done:  E(RB2PLYP) =  -257.751762098     A.U. after   11 cycles
 E2(B2PLYP) =    -0.2725927146D+00 E(B2PLYP) =    -0.25802435481262D+03
 SCF Done:  E(RB2PLYP) =  -257.751684809     A.U. after   11 cycles
 E2(B2PLYP) =    -0.2726545671D+00 E(B2PLYP) =    -0.25802433937637D+03
 SCF Done:  E(RB2PLYP) =  -257.751633473     A.U. after   10 cycles
 E2(B2PLYP) =    -0.2727334042D+00 E(B2PLYP) =    -0.25802436687711D+03
 SCF Done:  E(RB2PLYP) =  -257.751531270     A.U. after   12 cycles
 E2(B2PLYP) =    -0.2726329074D+00 E(B2PLYP) =    -0.25802416417756D+03
 SCF Done:  E(RB2PLYP) =  -257.751627731     A.U. after    9 cycles
 E2(B2PLYP) =    -0.2727397691D+00 E(B2PLYP) =    -0.25802436750034D+03
 SCF Done:  E(RB2PLYP) =  -257.751629003     A.U. after    7 cycles
 E2(B2PLYP) =    -0.2727386681D+00 E(B2PLYP) =    -0.25802436767123D+03
 SCF Done:  E(RB2PLYP) =  -257.751625074     A.U. after    8 cycles
 E2(B2PLYP) =    -0.2727425548D+00 E(B2PLYP) =    -0.25802436762908D+03
 SCF Done:  E(RB2PLYP) =  -257.751624855     A.U. after    6 cycles
 E2(B2PLYP) =    -0.2727428382D+00 E(B2PLYP) =    -0.25802436769326D+03
 SCF Done:  E(RB2PLYP) =  -257.751623874     A.U. after    8 cycles
 E2(B2PLYP) =    -0.2727437165D+00 E(B2PLYP) =    -0.25802436759053D+03
 SCF Done:  E(RB2PLYP) =  -257.751624196     A.U. after    5 cycles
 E2(B2PLYP) =    -0.2727435010D+00 E(B2PLYP) =    -0.25802436769678D+03
 SCF Done:  E(RB2PLYP) =  -257.751624391     A.U. after    6 cycles
 E2(B2PLYP) =    -0.2727433023D+00 E(B2PLYP) =    -0.25802436769368D+03
 Optimization completed.
    -- Stationary point found.

 1\1\GINC-N366\POpt\RB2PLYP-Full\6-31G(d,p)\C1H2N4\RDJ3\27-Nov-2013\1\\
 #B2PLYP=FULL/6-31G** opt=z-matrix freq density\\1H-tetrazole CH2N4 cas
 no=288948 state=1 config=1 method=59 basis=3\\0,1\X\X,1,1.\C,1,1.,2,90
 .\N,1,rn1,2,90.,3,an1,0\N,1,rn2,2,90.,3,an2,0\N,1,rn3,2,90.,3,an3,0\N,
 1,rn4,2,90.,3,an4,0\H,3,rch,4,ach,5,180.,0\H,4,rnh,5,anh,6,180.,0\\rn1
 =1.19375615\rn2=1.33580097\rn3=1.17691742\rn4=1.01336342\rch=1.0760815
 1\rnh=1.00780602\an1=75.15208938\an2=139.57527855\an3=201.41764697\an4
 =278.24217376\ach=124.77964466\anh=120.37204723\\Version=EM64L-G09RevD

 Normal termination of Gaussian 09 at Wed Nov 27 01:56:42 2013.

 ----------------------------------------------------------------------
 #N Geom=AllCheck Guess=TCheck SCRF=Check GenChk RB2PLYP-Full/6-31G(d,p
 ) Freq
 ----------------------------------------------------------------------

 Structure from the checkpoint file:  "/tmp/rdj3/g09-23219/Gau-19440.chk"
 ------------------------------------------------------------------
 1H-tetrazole CH2N4 casno=288948 state=1 config=1 method=59 basis=3
 ------------------------------------------------------------------
 Charge =  0 Multiplicity = 1

                         Standard orientation:
 ---------------------------------------------------------------------
 Center     Atomic      Atomic             Coordinates (Angstroms)
 Number     Number       Type             X           Y           Z
 ---------------------------------------------------------------------
      1          6           0        1.068903    0.237625    0.000000
      2          7           0        0.000000    1.056582    0.000000
      3          7           0       -1.125126    0.303821    0.000000
      4          7           0       -0.723124   -0.930733    0.000000
      5          7           0        0.641518   -1.008850    0.000000
      6          1           0        2.093688    0.565903    0.000000
      7          1           0       -0.059985    2.062601    0.000000
 ---------------------------------------------------------------------

 SCF Done:  E(RB2PLYP) =  -257.751624391     A.U. after    1 cycles
 E2(B2PLYP) =    -0.2727433042D+00 E(B2PLYP) =    -0.25802436769556D+03
 E2(B2PLYP) =    -0.2727433042D+00 E(B2PLYP) =    -0.25802436769556D+03

 The electronic state is 1-A'.
 Alpha  occ. eigenvalues --  -14.97033 -14.94061 -14.92258 -14.88809 -10.72628
 Alpha  occ. eigenvalues --   -1.28710  -1.07616  -1.01960  -0.77620  -0.75883
 Alpha  occ. eigenvalues --   -0.68201  -0.57397  -0.57086  -0.45873  -0.38391
 Alpha  occ. eigenvalues --   -0.37808  -0.36701  -0.35613
 Alpha virt. eigenvalues --    0.04081   0.08428   0.11216   0.16608   0.25962
 Alpha virt. eigenvalues --    0.26723   0.35609   0.39291   0.50315   0.60048
 Alpha virt. eigenvalues --    0.60611   0.68484   0.69259   0.73864   0.76015

 Mulliken charges:
               1
     1  C    0.302862
     2  N   -0.353715
     3  N   -0.047450
     4  N   -0.083346
     5  N   -0.301187
     6  H    0.170028
     7  H    0.312809
 Sum of Mulliken charges =   0.00000

 Dipole moment (field-independent basis, Debye):
    X=              2.4973    Y=              4.7768    Z=              0.0000  Tot=              5.3902
 Quadrupole moment (field-independent basis, Debye-Ang):
   XX=            -28.7960   YY=            -26.1843   ZZ=            -28.2825
   XY=              1.8037   XZ=              0.0000   YZ=              0.0000

  Exact polarizability:  37.586   1.058  37.062   0.000   0.000  15.575
 Approx polarizability:  50.773   0.128  53.847   0.000   0.000  20.359

                      1                      2                      3
                     A"                     A"                     A"
 Frequencies --    582.5861               692.9420               736.0535
 Red. masses --      1.8489                 1.9805                 7.4955
 Frc consts  --      0.3697                 0.5603                 2.3926
 IR Inten    --     86.3755                11.0040                 9.8941

                      4                      5                      6
                     A"                     A'                     A'
 Frequencies --    852.3261               968.8438              1010.3017
 Red. masses --      1.3325                 5.0340                 6.1376
 Frc consts  --      0.5703                 2.7840                 3.6911
 IR Inten    --     18.3377                 3.7717                 0.5025

                      7                      8                      9
                     A'                     A'                     A'
 Frequencies --   1055.3579              1071.3596              1157.7774
 Red. masses --      5.2689                 3.8193                 1.8394
 Frc consts  --      3.4576                 2.5829                 1.4527
 IR Inten    --     14.5916                29.6232                14.9036

                     10                     11                     12
                     A'                     A'                     A'
 Frequencies --   1268.8049              1274.6833              1475.3130
 Red. masses --      4.3961                 3.5268                 3.1163
 Frc consts  --      4.1697                 3.3763                 3.9962
 IR Inten    --     14.5891                 1.2740                10.6997

                     13                     14                     15
                     A'                     A'                     A'
 Frequencies --   1512.3546              3339.6407              3700.6948
 Red. masses --      3.0761                 1.1003                 1.0840
 Frc consts  --      4.1453                 7.2303                 8.7464
 IR Inten    --     18.9223                 1.4177                96.7118

 - Thermochemistry -
 -------------------
 Temperature   298.150 Kelvin.  Pressure   1.00000 Atm.
 Atom     1 has atomic number  6 and mass  12.00000

 Molecular mass:    70.02795 amu.
 Principal axes and moments of inertia in atomic units:
                           1         2         3
     Eigenvalues --   172.34961 175.41423 347.76384
           X            0.85188   0.52374   0.00000
           Y           -0.52374   0.85188   0.00000
           Z            0.00000   0.00000   1.00000
 This molecule is an asymmetric top.
 Rotational symmetry number  1.
 Rotational temperatures (Kelvin)      0.50255     0.49377     0.24906
 Rotational constants (GHZ):          10.47140    10.28845     5.18956
 Zero-point vibrational energy     123807.7 (Joules/Mol)
                                   29.59076 (Kcal/Mol)
 Warning -- explicit consideration of   1 degrees of freedom as
           vibrations may cause significant error
 Vibrational temperatures:    838.21   996.99  1059.02  1226.31  1393.95
          (Kelvin)           1453.60  1518.42  1541.45  1665.78  1825.52
                             1833.98  2122.64  2175.94  4804.99  5324.47

 Zero-point correction=                           0.047156 (Hartree/Particle)
 Thermal correction to Energy=                    0.050627
 Thermal correction to Enthalpy=                  0.051571
 Thermal correction to Gibbs Free Energy=         0.021054
 Sum of electronic and zero-point Energies=           -257.977212
 Sum of electronic and thermal Energies=              -257.973741
 Sum of electronic and thermal Enthalpies=            -257.972797
 Sum of electronic and thermal Free Energies=         -258.003314

                     E (Thermal)             CV                S
                      KCal/Mol        Cal/Mol-Kelvin    Cal/Mol-Kelvin
 Total                   31.769             11.321             64.229
 Electronic               0.000              0.000              0.000
 Translational            0.889              2.981             38.656
 Rotational               0.889              2.981             23.868
 Vibrational             29.991              5.359              1.705
 Vibration     1          0.939              1.069              0.481

 1\1\GINC-N366\Freq\RB2PLYP-Full\6-31G(d,p)\C1H2N4\RDJ3\27-Nov-2013\1\\
 #N Geom=AllCheck Guess=TCheck SCRF=Check GenChk RB2PLYP-Full/6-31G(d,p
 ) Freq\\1H-tetrazole CH2N4 casno=288948 state=1 config=1 method=59 bas
 is=3\\0,1\X\X,1,1.\C,1,1.,2,90.\N,1,rn1,2,90.,3,an1,0\N,1,rn2,2,90.,3,
 an2,0\N,1,rn3,2,90.,3,an3,0\N,1,rn4,2,90.,3,an4,0\H,3,rch,4,ach,5,180.
 ,0\H,4,rnh,5,anh,6,180.,0\\rn1=1.19375615\rn2=1.33580097\rn3=1.1769174
 2\rn4=1.01336342\rch=1.07608151\rnh=1.00780602\an1=75.15208938\an2=139
 .57527855\an3=201.41764697\an4=278.24217376\ach=124.77964466\anh=120.3

 Normal termination of Gaussian 09 at Wed Nov 27 01:57:34 2013.
