 Gaussian 09, Revision D.01,
 Gaussian 09:  EM64L-G09RevD.01 24-Apr-2013

 --------------------------------------------------
 #B2PLYP=FULL/aug-cc-pVTZ opt=z-matrix freq density
 --------------------------------------------------

 -------------------------------------------------------------------
 1H-tetrazole CH2N4 casno=288948 state=1 config=1 method=59 basis=18
 -------------------------------------------------------------------
 Symbolic Z-matrix:
 Charge =  0 Multiplicity = 1

 SCF Done:  E(RB2PLYP) =  -257.844731350     A.U. after   12 cycles
 E2(B2PLYP) =    -0.3435407006D+00 E(B2PLYP) =    -0.25818827205110D+03
 SCF Done:  E(RB2PLYP) =  -257.844318951     A.U. after   11 cycles
 E2(B2PLYP) =    -0.3469891274D+00 E(B2PLYP) =    -0.25819130807879D+03
 SCF Done:  E(RB2PLYP) =  -257.843928791     A.U. after    9 cycles
 E2(B2PLYP) =    -0.3474632391D+00 E(B2PLYP) =    -0.25819139203058D+03
 SCF Done:  E(RB2PLYP) =  -257.843879507     A.U. after    9 cycles
 E2(B2PLYP) =    -0.3474980310D+00 E(B2PLYP) =    -0.25819137753808D+03
 SCF Done:  E(RB2PLYP) =  -257.843772943     A.U. after    9 cycles
 E2(B2PLYP) =    -0.3476576022D+00 E(B2PLYP) =    -0.25819143054521D+03
 SCF Done:  E(RB2PLYP) =  -257.843168237     A.U. after   10 cycles
 E2(B2PLYP) =    -0.3477537176D+00 E(B2PLYP) =    -0.25819092195493D+03
 SCF Done:  E(RB2PLYP) =  -257.843761389     A.U. after    8 cycles
 E2(B2PLYP) =    -0.3476743771D+00 E(B2PLYP) =    -0.25819143576654D+03
 SCF Done:  E(RB2PLYP) =  -257.843748935     A.U. after    9 cycles
 E2(B2PLYP) =    -0.3476822525D+00 E(B2PLYP) =    -0.25819143118757D+03
 SCF Done:  E(RB2PLYP) =  -257.843755052     A.U. after    7 cycles
 E2(B2PLYP) =    -0.3476823735D+00 E(B2PLYP) =    -0.25819143742522D+03
 SCF Done:  E(RB2PLYP) =  -257.843769446     A.U. after    9 cycles
 E2(B2PLYP) =    -0.3476620217D+00 E(B2PLYP) =    -0.25819143146760D+03
 SCF Done:  E(RB2PLYP) =  -257.843752415     A.U. after    6 cycles
 E2(B2PLYP) =    -0.3476851478D+00 E(B2PLYP) =    -0.25819143756285D+03
 SCF Done:  E(RB2PLYP) =  -257.843764506     A.U. after    7 cycles
 E2(B2PLYP) =    -0.3476730500D+00 E(B2PLYP) =    -0.25819143755550D+03
 SCF Done:  E(RB2PLYP) =  -257.843762484     A.U. after    5 cycles
 E2(B2PLYP) =    -0.3476751139D+00 E(B2PLYP) =    -0.25819143759806D+03
 SCF Done:  E(RB2PLYP) =  -257.843760959     A.U. after    6 cycles
 E2(B2PLYP) =    -0.3476766475D+00 E(B2PLYP) =    -0.25819143760645D+03
 SCF Done:  E(RB2PLYP) =  -257.843762967     A.U. after    6 cycles
 E2(B2PLYP) =    -0.3476746574D+00 E(B2PLYP) =    -0.25819143762485D+03
 SCF Done:  E(RB2PLYP) =  -257.843762712     A.U. after    5 cycles
 E2(B2PLYP) =    -0.3476749053D+00 E(B2PLYP) =    -0.25819143761780D+03
 SCF Done:  E(RB2PLYP) =  -257.843763036     A.U. after    2 cycles
 E2(B2PLYP) =    -0.3476745820D+00 E(B2PLYP) =    -0.25819143761755D+03
 SCF Done:  E(RB2PLYP) =  -257.843766169     A.U. after    6 cycles
 E2(B2PLYP) =    -0.3476714192D+00 E(B2PLYP) =    -0.25819143758782D+03
 Optimization completed.
    -- Stationary point found.
 Normal termination of Gaussian 09 at Wed Nov 27 00:01:25 2013.

 ----------------------------------------------------------------------
 #N Geom=AllCheck Guess=TCheck SCRF=Check GenChk RB2PLYP-Full/Aug-CC-pV
 TZ Freq
 ----------------------------------------------------------------------

 Structure from the checkpoint file:  "/tmp/rdj3/g09-23219/Gau-3882.chk"
 -------------------------------------------------------------------
 1H-tetrazole CH2N4 casno=288948 state=1 config=1 method=59 basis=18
 -------------------------------------------------------------------
 Charge =  0 Multiplicity = 1

                         Standard orientation:
 ---------------------------------------------------------------------
 Center     Atomic      Atomic             Coordinates (Angstroms)
 Number     Number       Type             X           Y           Z
 ---------------------------------------------------------------------
      1          6           0        1.064583    0.236334    0.000000
      2          7           0        0.000000    1.051824    0.000000
      3          7           0       -1.118090    0.302204    0.000000
      4          7           0       -0.721527   -0.926204    0.000000
      5          7           0        0.637739   -1.004253    0.000000
      6          1           0        2.086679    0.562115    0.000000
      7          1           0       -0.061031    2.054884    0.000000
 ---------------------------------------------------------------------

 SCF Done:  E(RB2PLYP) =  -257.843766169     A.U. after    1 cycles
 E2(B2PLYP) =    -0.3476714320D+00 E(B2PLYP) =    -0.25819143760061D+03
 E2(B2PLYP) =    -0.3476714320D+00 E(B2PLYP) =    -0.25819143760061D+03

 The electronic state is 1-A'.
 Alpha  occ. eigenvalues --  -14.96102 -14.93421 -14.91788 -14.88224 -10.71933
 Alpha  occ. eigenvalues --   -1.29768  -1.08409  -1.02731  -0.78318  -0.76748
 Alpha  occ. eigenvalues --   -0.69002  -0.58201  -0.58154  -0.46806  -0.39317
 Alpha  occ. eigenvalues --   -0.38652  -0.37605  -0.36479
 Alpha virt. eigenvalues --   -0.00747   0.01853   0.02489   0.04582   0.04897
 Alpha virt. eigenvalues --    0.06917   0.07099   0.07969   0.08655   0.09687
 Alpha virt. eigenvalues --    0.10334   0.10887   0.12571   0.13846   0.14767

 Mulliken charges:
               1
     1  C   -0.244870
     2  N    0.215047
     3  N   -0.266474
     4  N   -0.169606
     5  N   -0.235314
     6  H    0.559055
     7  H    0.142163
 Sum of Mulliken charges =   0.00000

 Dipole moment (field-independent basis, Debye):
    X=              2.5154    Y=              4.7581    Z=              0.0000  Tot=              5.3821
 Quadrupole moment (field-independent basis, Debye-Ang):
   XX=            -29.4571   YY=            -26.9198   ZZ=            -28.8783
   XY=              1.8908   XZ=              0.0000   YZ=              0.0000

  Exact polarizability:  45.923   0.548  45.339   0.000   0.000  26.663
 Approx polarizability:  57.256   0.215  59.746   0.000   0.000  32.933

                      1                      2                      3
                     A"                     A"                     A"
 Frequencies --    601.6223               695.0852               741.4801
 Red. masses --      1.7283                 2.0057                 7.8102
 Frc consts  --      0.3686                 0.5709                 2.5299
 IR Inten    --     78.5203                 7.2647                 8.8006

                      4                      5                      6
                     A"                     A'                     A'
 Frequencies --    875.3093               959.3853              1010.0331
 Red. masses --      1.3810                 5.2165                 6.4124
 Frc consts  --      0.6234                 2.8289                 3.8543
 IR Inten    --     16.7844                 4.9529                 0.0861

                      7                      8                      9
                     A'                     A'                     A'
 Frequencies --   1040.0583              1061.7259              1146.2149
 Red. masses --      5.6186                 3.3263                 1.9442
 Frc consts  --      3.5809                 2.2092                 1.5050
 IR Inten    --     13.6090                28.7473                15.3616

                     10                     11                     12
                     A'                     A'                     A'
 Frequencies --   1252.1391              1263.9422              1455.9696
 Red. masses --      4.4273                 3.4144                 3.0837
 Frc consts  --      4.0897                 3.2138                 3.8514
 IR Inten    --     12.1844                 0.7126                10.1324

                     13                     14                     15
                     A'                     A'                     A'
 Frequencies --   1495.9184              3304.6997              3664.3538
 Red. masses --      3.0274                 1.1007                 1.0839
 Frc consts  --      3.9915                 7.0823                 8.5751
 IR Inten    --     17.1658                 2.2801                99.0376

 - Thermochemistry -
 -------------------
 Temperature   298.150 Kelvin.  Pressure   1.00000 Atm.
 Atom     1 has atomic number  6 and mass  12.00000

 Molecular mass:    70.02795 amu.
 Principal axes and moments of inertia in atomic units:
                           1         2         3
     Eigenvalues --   170.87783 173.65445 344.53227
           X            0.85946   0.51120   0.00000
           Y           -0.51120   0.85946   0.00000
           Z            0.00000   0.00000   1.00000
 This molecule is an asymmetric top.
 Rotational symmetry number  1.
 Rotational temperatures (Kelvin)      0.50688     0.49877     0.25140
 Rotational constants (GHZ):          10.56159    10.39272     5.23824
 Zero-point vibrational energy     123023.6 (Joules/Mol)
                                   29.40334 (Kcal/Mol)
 Warning -- explicit consideration of   1 degrees of freedom as
           vibrations may cause significant error
 Vibrational temperatures:    865.60  1000.07  1066.82  1259.37  1380.34
          (Kelvin)           1453.21  1496.41  1527.58  1649.15  1801.55
                             1818.53  2094.81  2152.29  4754.72  5272.18

 Zero-point correction=                           0.046857 (Hartree/Particle)
 Thermal correction to Energy=                    0.050317
 Thermal correction to Enthalpy=                  0.051261
 Thermal correction to Gibbs Free Energy=         0.020775
 Sum of electronic and zero-point Energies=           -258.144580
 Sum of electronic and thermal Energies=              -258.141121
 Sum of electronic and thermal Enthalpies=            -258.140176
 Sum of electronic and thermal Free Energies=         -258.170663

                     E (Thermal)             CV                S
                      KCal/Mol        Cal/Mol-Kelvin    Cal/Mol-Kelvin
 Total                   31.574             11.301             64.165
 Electronic               0.000              0.000              0.000
 Translational            0.889              2.981             38.656
 Rotational               0.889              2.981             23.840
 Vibrational             29.797              5.340              1.669
 Vibration     1          0.960              1.028              0.447

 Normal termination of Gaussian 09 at Wed Nov 27 01:29:51 2013.
