 Gaussian 09, Revision D.01,
 Gaussian 09:  EM64L-G09RevD.01 24-Apr-2013

 -------------------------------------
 #B2PLYP=FULL/cc-pVTZ opt freq density
 -------------------------------------

 ------------------------------------------------------------------
 1H-tetrazole CH2N4 casno=288948 state=1 config=1 method=59 basis=6
 ------------------------------------------------------------------
 Symbolic Z-matrix:
 Charge =  0 Multiplicity = 1

 SCF Done:  E(RB2PLYP) =  -257.840391105     A.U. after   13 cycles
 E2(B2PLYP) =    -0.3345659761D+00 E(B2PLYP) =    -0.25817495708064D+03
 SCF Done:  E(RB2PLYP) =  -257.839962050     A.U. after   11 cycles
 E2(B2PLYP) =    -0.3380262074D+00 E(B2PLYP) =    -0.25817798825757D+03
 SCF Done:  E(RB2PLYP) =  -257.839434830     A.U. after   10 cycles
 E2(B2PLYP) =    -0.3386537079D+00 E(B2PLYP) =    -0.25817808853809D+03
 SCF Done:  E(RB2PLYP) =  -257.839314746     A.U. after    9 cycles
 E2(B2PLYP) =    -0.3387839261D+00 E(B2PLYP) =    -0.25817809867171D+03
 SCF Done:  E(RB2PLYP) =  -257.839398006     A.U. after    8 cycles
 E2(B2PLYP) =    -0.3387076866D+00 E(B2PLYP) =    -0.25817810569276D+03
 SCF Done:  E(RB2PLYP) =  -257.839428934     A.U. after    8 cycles
 E2(B2PLYP) =    -0.3386777866D+00 E(B2PLYP) =    -0.25817810672099D+03
 Optimization completed.
    -- Stationary point found.
 Normal termination of Gaussian 09 at Mon Dec 16 16:12:25 2013.

 ----------------------------------------------------------------------
 #N Geom=AllCheck Guess=TCheck SCRF=Check GenChk RB2PLYP-Full/CC-pVTZ F
 req
 ----------------------------------------------------------------------

 Structure from the checkpoint file:  "/tmp/rdj3/g09-18029/Gau-19463.chk"
 ------------------------------------------------------------------
 1H-tetrazole CH2N4 casno=288948 state=1 config=1 method=59 basis=6
 ------------------------------------------------------------------
 Charge =  0 Multiplicity = 1

                         Standard orientation:
 ---------------------------------------------------------------------
 Center     Atomic      Atomic             Coordinates (Angstroms)
 Number     Number       Type             X           Y           Z
 ---------------------------------------------------------------------
      1          6           0        1.064039    0.235763    0.000000
      2          7           0        0.000000    1.052300    0.000000
      3          7           0       -1.118355    0.301834    0.000000
      4          7           0       -0.721762   -0.925566    0.000000
      5          7           0        0.638629   -1.004579    0.000000
      6          1           0        2.085494    0.562330    0.000000
      7          1           0       -0.059312    2.055166    0.000000
 ---------------------------------------------------------------------

 SCF Done:  E(RB2PLYP) =  -257.839428934     A.U. after    1 cycles
 E2(B2PLYP) =    -0.3386777878D+00 E(B2PLYP) =    -0.25817810672224D+03
 E2(B2PLYP) =    -0.3386777878D+00 E(B2PLYP) =    -0.25817810672224D+03

 The electronic state is 1-A'.
 Alpha  occ. eigenvalues --  -14.95676 -14.92898 -14.91210 -14.87718 -10.71566
 Alpha  occ. eigenvalues --   -1.29335  -1.07983  -1.02355  -0.77922  -0.76352
 Alpha  occ. eigenvalues --   -0.68659  -0.57823  -0.57784  -0.46403  -0.38909
 Alpha  occ. eigenvalues --   -0.38197  -0.37187  -0.36126
 Alpha virt. eigenvalues --    0.03546   0.05455   0.07523   0.09864   0.19334
 Alpha virt. eigenvalues --    0.21698   0.23913   0.30752   0.33003   0.36226
 Alpha virt. eigenvalues --    0.42292   0.44124   0.45631   0.47623   0.49022

 Mulliken charges:
               1
     1  C   -0.051701
     2  N   -0.015020
     3  N   -0.072656
     4  N   -0.075123
     5  N   -0.142912
     6  H    0.160467
     7  H    0.196945
 Sum of Mulliken charges =   0.00000

 Dipole moment (field-independent basis, Debye):
    X=              2.4437    Y=              4.7192    Z=              0.0000  Tot=              5.3143
 Quadrupole moment (field-independent basis, Debye-Ang):
   XX=            -29.0807   YY=            -26.4816   ZZ=            -28.4317
   XY=              1.8317   XZ=              0.0000   YZ=              0.0000

  Exact polarizability:  41.285   0.892  40.520   0.000   0.000  20.742
 Approx polarizability:  53.934   0.312  56.500   0.000   0.000  27.331

                      1                      2                      3
                     A"                     A"                     A"
 Frequencies --    594.4037               696.5263               744.0635
 Red. masses --      1.7083                 2.0401                 7.8416
 Frc consts  --      0.3556                 0.5831                 2.5578
 IR Inten    --     78.3819                 6.6026                 9.1662

                      4                      5                      6
                     A"                     A'                     A'
 Frequencies --    878.5934               961.4163              1011.0811
 Red. masses --      1.3768                 5.4181                 6.0802
 Frc consts  --      0.6262                 2.9507                 3.6622
 IR Inten    --     17.7767                 4.8741                 0.2635

                      7                      8                      9
                     A'                     A'                     A'
 Frequencies --   1040.8363              1062.8637              1150.7204
 Red. masses --      5.7775                 3.3198                 1.9554
 Frc consts  --      3.6877                 2.2096                 1.5256
 IR Inten    --     13.6876                28.7421                16.5733

                     10                     11                     12
                     A'                     A'                     A'
 Frequencies --   1258.8973              1267.9831              1460.7081
 Red. masses --      3.6894                 3.9734                 2.9868
 Frc consts  --      3.4450                 3.7639                 3.7548
 IR Inten    --     11.9583                 1.6505                 9.7632

                     13                     14                     15
                     A'                     A'                     A'
 Frequencies --   1501.7033              3308.9943              3673.5987
 Red. masses --      3.1092                 1.1005                 1.0839
 Frc consts  --      4.1311                 7.0998                 8.6184
 IR Inten    --     16.0349                 1.5849                96.3358

 - Thermochemistry -
 -------------------
 Temperature   298.150 Kelvin.  Pressure   1.00000 Atm.
 Atom     1 has atomic number  6 and mass  12.00000

 Molecular mass:    70.02795 amu.
 Principal axes and moments of inertia in atomic units:
                           1         2         3
     Eigenvalues --   170.82944 173.74394 344.57338
           X            0.85581   0.51728   0.00000
           Y           -0.51728   0.85581   0.00000
           Z            0.00000   0.00000   1.00000
 This molecule is an asymmetric top.
 Rotational symmetry number  1.
 Rotational temperatures (Kelvin)      0.50702     0.49851     0.25137
 Rotational constants (GHZ):          10.56458    10.38736     5.23761
 Zero-point vibrational energy     123289.5 (Joules/Mol)
                                   29.46689 (Kcal/Mol)
 Warning -- explicit consideration of   1 degrees of freedom as
           vibrations may cause significant error
 Vibrational temperatures:    855.21  1002.14  1070.54  1264.10  1383.26
          (Kelvin)           1454.72  1497.53  1529.22  1655.63  1811.27
                             1824.34  2101.63  2160.61  4760.90  5285.48

 Zero-point correction=                           0.046958 (Hartree/Particle)
 Thermal correction to Energy=                    0.050418
 Thermal correction to Enthalpy=                  0.051362
 Thermal correction to Gibbs Free Energy=         0.020875
 Sum of electronic and zero-point Energies=           -258.131148
 Sum of electronic and thermal Energies=              -258.127689
 Sum of electronic and thermal Enthalpies=            -258.126744
 Sum of electronic and thermal Free Energies=         -258.157232

                     E (Thermal)             CV                S
                      KCal/Mol        Cal/Mol-Kelvin    Cal/Mol-Kelvin
 Total                   31.638             11.287             64.166
 Electronic               0.000              0.000              0.000
 Translational            0.889              2.981             38.656
 Rotational               0.889              2.981             23.840
 Vibrational             29.860              5.325              1.670
 Vibration     1          0.952              1.044              0.459

 Optimization completed.
    -- Stationary point found.
 Normal termination of Gaussian 09 at Mon Dec 16 16:23:48 2013.
