 Gaussian 09, Revision D.01,
 Gaussian 09:  EM64L-G09RevD.01 24-Apr-2013

 ----------------------------------
 #B2PLYP=FULL/TZVP opt freq density
 ----------------------------------

 -------------------------------------------------------------------
 1H-tetrazole CH2N4 casno=288948 state=1 config=1 method=59 basis=32
 -------------------------------------------------------------------
 Symbolic Z-matrix:
 Charge =  0 Multiplicity = 1

 SCF Done:  E(RB2PLYP) =  -257.829245132     A.U. after   14 cycles
 E2(B2PLYP) =    -0.2992450678D+00 E(B2PLYP) =    -0.25812849019946D+03
 SCF Done:  E(RB2PLYP) =  -257.828823543     A.U. after   12 cycles
 E2(B2PLYP) =    -0.3033712059D+00 E(B2PLYP) =    -0.25813219474892D+03
 SCF Done:  E(RB2PLYP) =  -257.828190411     A.U. after   11 cycles
 E2(B2PLYP) =    -0.3041161078D+00 E(B2PLYP) =    -0.25813230651888D+03
 SCF Done:  E(RB2PLYP) =  -257.828041674     A.U. after   10 cycles
 E2(B2PLYP) =    -0.3042762561D+00 E(B2PLYP) =    -0.25813231793032D+03
 SCF Done:  E(RB2PLYP) =  -257.828165593     A.U. after    9 cycles
 E2(B2PLYP) =    -0.3041608503D+00 E(B2PLYP) =    -0.25813232644333D+03
 SCF Done:  E(RB2PLYP) =  -257.828186218     A.U. after    8 cycles
 E2(B2PLYP) =    -0.3041408453D+00 E(B2PLYP) =    -0.25813232706330D+03
 Optimization completed.
    -- Stationary point found.
 Normal termination of Gaussian 09 at Mon Dec 16 16:04:51 2013.

 ----------------------------------------------------------------------
 #N Geom=AllCheck Guess=TCheck SCRF=Check GenChk RB2PLYP-Full/TZVP Freq
 ----------------------------------------------------------------------

 Structure from the checkpoint file:  "/tmp/rdj3/g09-18029/Gau-18625.chk"
 -------------------------------------------------------------------
 1H-tetrazole CH2N4 casno=288948 state=1 config=1 method=59 basis=32
 -------------------------------------------------------------------
 Charge =  0 Multiplicity = 1

                         Standard orientation:
 ---------------------------------------------------------------------
 Center     Atomic      Atomic             Coordinates (Angstroms)
 Number     Number       Type             X           Y           Z
 ---------------------------------------------------------------------
      1          6           0        1.066240    0.236793    0.000000
      2          7           0        0.000000    1.054979    0.000000
      3          7           0       -1.121914    0.300202    0.000000
      4          7           0       -0.723161   -0.927796    0.000000
      5          7           0        0.641522   -1.004908    0.000000
      6          1           0        2.090281    0.561851    0.000000
      7          1           0       -0.062852    2.060049    0.000000
 ---------------------------------------------------------------------

 SCF Done:  E(RB2PLYP) =  -257.828186218     A.U. after    1 cycles
 E2(B2PLYP) =    -0.3041408428D+00 E(B2PLYP) =    -0.25813232706082D+03
 E2(B2PLYP) =    -0.3041408428D+00 E(B2PLYP) =    -0.25813232706082D+03

 The electronic state is 1-A'.
 Alpha  occ. eigenvalues --  -14.96111 -14.93404 -14.91621 -14.88138 -10.72083
 Alpha  occ. eigenvalues --   -1.30027  -1.08529  -1.03108  -0.78433  -0.76883
 Alpha  occ. eigenvalues --   -0.69190  -0.58302  -0.58071  -0.46813  -0.39307
 Alpha  occ. eigenvalues --   -0.38616  -0.37608  -0.36678
 Alpha virt. eigenvalues --    0.02788   0.04969   0.06847   0.10454   0.15474
 Alpha virt. eigenvalues --    0.16717   0.22445   0.24603   0.28676   0.32093
 Alpha virt. eigenvalues --    0.34025   0.37700   0.39418   0.40157   0.41906

 Mulliken charges:
               1
     1  C   -0.103090
     2  N   -0.098297
     3  N   -0.067432
     4  N   -0.078906
     5  N   -0.060300
     6  H    0.142423
     7  H    0.265603
 Sum of Mulliken charges =   0.00000

 Dipole moment (field-independent basis, Debye):
    X=              2.5640    Y=              4.9049    Z=              0.0000  Tot=              5.5346
 Quadrupole moment (field-independent basis, Debye-Ang):
   XX=            -29.5851   YY=            -26.9951   ZZ=            -28.7371
   XY=              1.8982   XZ=              0.0000   YZ=              0.0000

  Exact polarizability:  41.744   0.780  41.250   0.000   0.000  21.974
 Approx polarizability:  52.696   0.059  55.955   0.000   0.000  27.017

                      1                      2                      3
                     A"                     A"                     A"
 Frequencies --    540.5094               687.3491               724.3684
 Red. masses --      2.0475                 1.9240                 6.9070
 Frc consts  --      0.3524                 0.5356                 2.1353
 IR Inten    --     70.6771                13.5486                10.0937

                      4                      5                      6
                     A"                     A'                     A'
 Frequencies --    832.4936               950.4058              1008.0015
 Red. masses --      1.2878                 6.0669                 6.4960
 Frc consts  --      0.5259                 3.2287                 3.8888
 IR Inten    --     28.4718                 5.9076                 0.0979

                      7                      8                      9
                     A'                     A'                     A'
 Frequencies --   1025.1721              1060.0937              1150.5875
 Red. masses --      5.7198                 3.5193                 1.9267
 Frc consts  --      3.5418                 2.3302                 1.5028
 IR Inten    --     16.4038                27.8406                17.3560

                     10                     11                     12
                     A'                     A'                     A'
 Frequencies --   1253.6356              1266.1142              1455.7130
 Red. masses --      6.0067                 2.7312                 3.0157
 Frc consts  --      5.5620                 2.5796                 3.7652
 IR Inten    --     16.3648                 0.7106                10.1574

                     13                     14                     15
                     A'                     A'                     A'
 Frequencies --   1501.8444              3314.2583              3668.2805
 Red. masses --      2.8314                 1.1007                 1.0840
 Frc consts  --      3.7627                 7.1237                 8.5944
 IR Inten    --     19.0496                 2.4507               104.9602

 - Thermochemistry -
 -------------------
 Temperature   298.150 Kelvin.  Pressure   1.00000 Atm.
 Atom     1 has atomic number  6 and mass  12.00000

 Molecular mass:    70.02795 amu.
 Principal axes and moments of inertia in atomic units:
                           1         2         3
     Eigenvalues --   171.54973 174.54558 346.09531
           X            0.89007   0.45582   0.00000
           Y           -0.45582   0.89007   0.00000
           Z            0.00000   0.00000   1.00000
 This molecule is an asymmetric top.
 Rotational symmetry number  1.
 Rotational temperatures (Kelvin)      0.50489     0.49622     0.25026
 Rotational constants (GHZ):          10.52022    10.33966     5.21458
 Zero-point vibrational energy     122251.3 (Joules/Mol)
                                   29.21877 (Kcal/Mol)
 Warning -- explicit consideration of   1 degrees of freedom as
           vibrations may cause significant error
 Vibrational temperatures:    777.67   988.94  1042.20  1197.77  1367.42
          (Kelvin)           1450.29  1474.99  1525.24  1655.44  1803.70
                             1821.65  2094.44  2160.82  4768.47  5277.83

 Zero-point correction=                           0.046563 (Hartree/Particle)
 Thermal correction to Energy=                    0.050082
 Thermal correction to Enthalpy=                  0.051027
 Thermal correction to Gibbs Free Energy=         0.020447
 Sum of electronic and zero-point Energies=           -258.085764
 Sum of electronic and thermal Energies=              -258.082245
 Sum of electronic and thermal Enthalpies=            -258.081300
 Sum of electronic and thermal Free Energies=         -258.111880

                     E (Thermal)             CV                S
                      KCal/Mol        Cal/Mol-Kelvin    Cal/Mol-Kelvin
 Total                   31.427             11.567             64.360
 Electronic               0.000              0.000              0.000
 Translational            0.889              2.981             38.656
 Rotational               0.889              2.981             23.853
 Vibrational             29.650              5.605              1.850
 Vibration     1          0.896              1.160              0.564

 Optimization completed.
    -- Stationary point found.
 Normal termination of Gaussian 09 at Mon Dec 16 16:06:17 2013.
