 Gaussian 09, Revision D.01,
 Gaussian 09:  EM64L-G09RevD.01 24-Apr-2013

 ------------------------------
 #QCISD/6-31G* opt freq density
 ------------------------------

 -----------------------------------------------------------------
 1H-tetrazole CH2N4 casno=288948 state=1 config=1 method=5 basis=1
 -----------------------------------------------------------------
 Symbolic Z-matrix:
 Charge =  0 Multiplicity = 1

 SCF Done:  E(RHF) =  -256.754076285     A.U. after   15 cycles
 E2 =    -0.7737063668D+00 EUMP2 =    -0.25752778265216D+03
 SCF Done:  E(RHF) =  -256.749087188     A.U. after   13 cycles
 E2 =    -0.7855882474D+00 EUMP2 =    -0.25753467543561D+03
 SCF Done:  E(RHF) =  -256.748330983     A.U. after   11 cycles
 E2 =    -0.7866116739D+00 EUMP2 =    -0.25753494265695D+03
 SCF Done:  E(RHF) =  -256.748126381     A.U. after   10 cycles
 E2 =    -0.7868925909D+00 EUMP2 =    -0.25753501897177D+03
 SCF Done:  E(RHF) =  -256.748295902     A.U. after   10 cycles
 E2 =    -0.7866911542D+00 EUMP2 =    -0.25753498705654D+03
 Optimization completed.
    -- Stationary point found.
 Normal termination of Gaussian 09 at Tue Dec 17 03:24:28 2013.

 ----------------------------------------------------------------------
 #N Geom=AllCheck Guess=TCheck SCRF=Check GenChk RQCISD(FC)/6-31G(d) Fr
 eq
 ----------------------------------------------------------------------

 Structure from the checkpoint file:  "/tmp/rdj3/g09-18029/Gau-27653.chk"
 -----------------------------------------------------------------
 1H-tetrazole CH2N4 casno=288948 state=1 config=1 method=5 basis=1
 -----------------------------------------------------------------
 Charge =  0 Multiplicity = 1

                         Standard orientation:
 ---------------------------------------------------------------------
 Center     Atomic      Atomic             Coordinates (Angstroms)
 Number     Number       Type             X           Y           Z
 ---------------------------------------------------------------------
      1          6           0        1.068561    0.236095    0.000000
      2          7           0        0.000000    1.057393    0.000000
      3          7           0       -1.124002    0.301321    0.000000
      4          7           0       -0.726484   -0.928029    0.000000
      5          7           0        0.643976   -1.008995    0.000000
      6          1           0        2.098467    0.564361    0.000000
      7          1           0       -0.064269    2.067238    0.000000
 ---------------------------------------------------------------------

 SCF Done:  E(RHF) =  -256.748295902     A.U. after    1 cycles
 E2 =    -0.7866911540D+00 EUMP2 =    -0.25753498705633D+03
 SCF Done:  E(RHF) =  -256.748256238     A.U. after    9 cycles
 E2 =    -0.7867408197D+00 EUMP2 =    -0.25753499705820D+03
 SCF Done:  E(RHF) =  -256.748332040     A.U. after   10 cycles
 E2 =    -0.7866417100D+00 EUMP2 =    -0.25753497375003D+03
 SCF Done:  E(RHF) =  -256.748265976     A.U. after   10 cycles
 E2 =    -0.7867360037D+00 EUMP2 =    -0.25753500197997D+03
 SCF Done:  E(RHF) =  -256.748323288     A.U. after   11 cycles
 E2 =    -0.7866463196D+00 EUMP2 =    -0.25753496960746D+03
 E2 =    -0.7866912790D+00 EUMP2 =    -0.25753498683051D+03
 E2 =    -0.7867021033D+00 EUMP2 =    -0.25753498326381D+03
 E2 =    -0.7866802962D+00 EUMP2 =    -0.25753498868819D+03
 E2 =    -0.7867121861D+00 EUMP2 =    -0.25753497916760D+03
 E2 =    -0.7866703248D+00 EUMP2 =    -0.25753499126933D+03
 E2 =    -0.7866912135D+00 EUMP2 =    -0.25753498689770D+03
 E2 =    -0.7865973942D+00 EUMP2 =    -0.25753497345372D+03
 E2 =    -0.7867851006D+00 EUMP2 =    -0.25753499874133D+03
 E2 =    -0.7868050708D+00 EUMP2 =    -0.25753502925427D+03
 E2 =    -0.7865773057D+00 EUMP2 =    -0.25753494298349D+03
 E2 =    -0.7866794929D+00 EUMP2 =    -0.25753500080077D+03
 E2 =    -0.7867029261D+00 EUMP2 =    -0.25753497178911D+03
 E2 =    -0.7865546099D+00 EUMP2 =    -0.25753494516035D+03
 E2 =    -0.7868278815D+00 EUMP2 =    -0.25753502679997D+03
 E2 =    -0.7866912456D+00 EUMP2 =    -0.25753498684862D+03
 E2 =    -0.7867233234D+00 EUMP2 =    -0.25753497827387D+03
 E2 =    -0.7866590640D+00 EUMP2 =    -0.25753499442714D+03
 E2 =    -0.7866068328D+00 EUMP2 =    -0.25753497030923D+03
 E2 =    -0.7867756011D+00 EUMP2 =    -0.25753500153369D+03
 E2 =    -0.7866912246D+00 EUMP2 =    -0.25753498686853D+03
 SCF Done:  E(RHF) =  -256.748276533     A.U. after    7 cycles
 E2 =    -0.7867080186D+00 EUMP2 =    -0.25753498455158D+03
 SCF Done:  E(RHF) =  -256.748313959     A.U. after    8 cycles
 E2 =    -0.7866743233D+00 EUMP2 =    -0.25753498828186D+03
 SCF Done:  E(RHF) =  -256.748289709     A.U. after    8 cycles
 E2 =    -0.7866970355D+00 EUMP2 =    -0.25753498674446D+03
 SCF Done:  E(RHF) =  -256.748301757     A.U. after    9 cycles
 E2 =    -0.7866853030D+00 EUMP2 =    -0.25753498705971D+03
 SCF Done:  E(RHF) =  -256.748295841     A.U. after    7 cycles
 E2 =    -0.7866911750D+00 EUMP2 =    -0.25753498701588D+03
 SCF Done:  E(RHF) =  -256.748298765     A.U. after    7 cycles
 E2 =    -0.7866872955D+00 EUMP2 =    -0.25753498606031D+03
 SCF Done:  E(RHF) =  -256.748292758     A.U. after    8 cycles
 E2 =    -0.7866950806D+00 EUMP2 =    -0.25753498783834D+03
 SCF Done:  E(RHF) =  -256.748262852     A.U. after    7 cycles
 E2 =    -0.7867266795D+00 EUMP2 =    -0.25753498953180D+03
 SCF Done:  E(RHF) =  -256.748327212     A.U. after    8 cycles
 E2 =    -0.7866556586D+00 EUMP2 =    -0.25753498287065D+03
 SCF Done:  E(RHF) =  -256.748295862     A.U. after    6 cycles
 E2 =    -0.7866911690D+00 EUMP2 =    -0.25753498703139D+03

 Alpha  occ. eigenvalues --  -15.68909 -15.67060 -15.65268 -15.60938 -11.34359
 Alpha  occ. eigenvalues --   -1.48993  -1.25203  -1.19516  -0.90457  -0.88692
 Alpha  occ. eigenvalues --   -0.79783  -0.67402  -0.67199  -0.56738  -0.47634
 Alpha  occ. eigenvalues --   -0.47204  -0.45199  -0.41795
 Alpha virt. eigenvalues --    0.13847   0.18716   0.19648   0.25025   0.36701
 Alpha virt. eigenvalues --    0.37617   0.47459   0.49871   0.64312   0.73614
 Alpha virt. eigenvalues --    0.73934   0.82426   0.82528   0.89459   0.91669

 Mulliken charges:
               1
     1  C    0.236599
     2  N   -0.468588
     3  N   -0.027594
     4  N   -0.075598
     5  N   -0.301933
     6  H    0.232950
     7  H    0.404166
 Sum of Mulliken charges =   0.00000

 Dipole moment (field-independent basis, Debye):
    X=              2.5320    Y=              4.8546    Z=              0.0018  Tot=              5.4752
 Quadrupole moment (field-independent basis, Debye-Ang):
   XX=            -28.9598   YY=            -26.5045   ZZ=            -28.5782
   XY=              1.9185   XZ=             -0.0001   YZ=              0.0040

                      1                      2                      3
                     A"                     A"                     A"
 Frequencies --    553.9715               690.9662               737.5320
 Red. masses --      1.7540                 2.0657                 8.0941
 Frc consts  --      0.3171                 0.5811                 2.5941
 IR Inten    --    105.7109                 8.8168                 9.5462

                      4                      5                      6
                     A"                     A'                     A'
 Frequencies --    865.6831               980.2253              1021.3197
 Red. masses --      1.3312                 5.4351                 6.8637
 Frc consts  --      0.5878                 3.0769                 4.2182
 IR Inten    --     19.8447                 2.5202                 0.4539

                      7                      8                      9
                     A'                     A'                     A'
 Frequencies --   1072.5443              1088.4728              1173.9484
 Red. masses --      5.6610                 3.1718                 1.7591
 Frc consts  --      3.8368                 2.2141                 1.4284
 IR Inten    --     17.7076                30.1049                15.0644

                     10                     11                     12
                     A'                     A'                     A'
 Frequencies --   1299.3152              1343.6179              1502.8281
 Red. masses --      2.4032                10.0542                 3.0079
 Frc consts  --      2.3904                10.6943                 4.0025
 IR Inten    --      0.8919                18.6698                14.7161

                     13                     14                     15
                     A'                     A'                     A'
 Frequencies --   1549.7078              3327.6938              3685.2567
 Red. masses --      3.6105                 1.1019                 1.0842
 Frc consts  --      5.1088                 7.1894                 8.6754
 IR Inten    --     20.9675                 0.7594               104.7769

 - Thermochemistry -
 -------------------
 Temperature   298.150 Kelvin.  Pressure   1.00000 Atm.
 Atom     1 has atomic number  6 and mass  12.00000

 Molecular mass:    70.02795 amu.
 Principal axes and moments of inertia in atomic units:
                           1         2         3
     Eigenvalues --   172.26091 175.62470 347.88562
           X            0.88429   0.46693   0.00000
           Y           -0.46693   0.88429   0.00000
           Z            0.00000   0.00000   1.00000
 This molecule is an asymmetric top.
 Rotational symmetry number  1.
 Rotational temperatures (Kelvin)      0.50281     0.49318     0.24897
 Rotational constants (GHZ):          10.47679    10.27612     5.18774
 Zero-point vibrational energy     124968.4 (Joules/Mol)
                                   29.86816 (Kcal/Mol)
 Warning -- explicit consideration of   1 degrees of freedom as
           vibrations may cause significant error
 Vibrational temperatures:    797.04   994.14  1061.14  1245.52  1410.32
          (Kelvin)           1469.45  1543.15  1566.07  1689.05  1869.42
                             1933.16  2162.23  2229.68  4787.80  5302.26

 Zero-point correction=                           0.047598 (Hartree/Particle)
 Thermal correction to Energy=                    0.051069
 Thermal correction to Enthalpy=                  0.052014
 Thermal correction to Gibbs Free Energy=         0.021490
 Sum of electronic and zero-point Energies=           -257.495883
 Sum of electronic and thermal Energies=              -257.492412
 Sum of electronic and thermal Enthalpies=            -257.491467
 Sum of electronic and thermal Free Energies=         -257.521991

                     E (Thermal)             CV                S
                      KCal/Mol        Cal/Mol-Kelvin    Cal/Mol-Kelvin
 Total                   32.047             11.231             64.242
 Electronic               0.000              0.000              0.000
 Translational            0.889              2.981             38.656
 Rotational               0.889              2.981             23.869
 Vibrational             30.269              5.269              1.717
 Vibration     1          0.909              1.131              0.536

 Optimization completed.
    -- Stationary point found.
 Normal termination of Gaussian 09 at Tue Dec 17 04:14:13 2013.
