 Gaussian 09, Revision D.01,
 Gaussian 09:  EM64L-G09RevD.01 24-Apr-2013

 ------------------------------------
 #QCISD/6-31G(2df,p) opt freq density
 ------------------------------------

 ------------------------------------------------------------------
 1H-tetrazole CH2N4 casno=288948 state=1 config=1 method=5 basis=19
 ------------------------------------------------------------------
 Symbolic Z-matrix:
 Charge =  0 Multiplicity = 1

 SCF Done:  E(RHF) =  -256.781975392     A.U. after   14 cycles
 E2 =    -0.9064718141D+00 EUMP2 =    -0.25768844720572D+03
 SCF Done:  E(RHF) =  -256.778478259     A.U. after   12 cycles
 E2 =    -0.9146798417D+00 EUMP2 =    -0.25769315810097D+03
 SCF Done:  E(RHF) =  -256.777903145     A.U. after   11 cycles
 E2 =    -0.9154999363D+00 EUMP2 =    -0.25769340308096D+03
 SCF Done:  E(RHF) =  -256.777817742     A.U. after   10 cycles
 E2 =    -0.9156432231D+00 EUMP2 =    -0.25769346096473D+03
 SCF Done:  E(RHF) =  -256.777893900     A.U. after    9 cycles
 E2 =    -0.9155512312D+00 EUMP2 =    -0.25769344513129D+03
 Optimization completed.
    -- Stationary point found.
 Normal termination of Gaussian 09 at Mon Dec 16 17:21:10 2013.

 ----------------------------------------------------------------------
 #N Geom=AllCheck Guess=TCheck SCRF=Check GenChk RQCISD(FC)/6-31G(2df,p
 ) Freq
 ----------------------------------------------------------------------

 Structure from the checkpoint file:  "/tmp/rdj3/g09-18029/Gau-21183.chk"
 ------------------------------------------------------------------
 1H-tetrazole CH2N4 casno=288948 state=1 config=1 method=5 basis=19
 ------------------------------------------------------------------
 Charge =  0 Multiplicity = 1

                         Standard orientation:
 ---------------------------------------------------------------------
 Center     Atomic      Atomic             Coordinates (Angstroms)
 Number     Number       Type             X           Y           Z
 ---------------------------------------------------------------------
      1          6           0        1.062879    0.233707    0.000000
      2          7           0        0.000000    1.053623    0.000000
      3          7           0       -1.116791    0.300741    0.000000
      4          7           0       -0.723472   -0.922143    0.000000
      5          7           0        0.639948   -1.006675    0.000000
      6          1           0        2.087319    0.562764    0.000000
      7          1           0       -0.062385    2.056175    0.000000
 ---------------------------------------------------------------------

 SCF Done:  E(RHF) =  -256.777893900     A.U. after    1 cycles
 E2 =    -0.9155512311D+00 EUMP2 =    -0.25769344513126D+03
 SCF Done:  E(RHF) =  -256.777855798     A.U. after    9 cycles
 E2 =    -0.9156003111D+00 EUMP2 =    -0.25769345610886D+03
 SCF Done:  E(RHF) =  -256.777928467     A.U. after    9 cycles
 E2 =    -0.9155023730D+00 EUMP2 =    -0.25769343083959D+03
 SCF Done:  E(RHF) =  -256.777866035     A.U. after    9 cycles
 E2 =    -0.9155955454D+00 EUMP2 =    -0.25769346158003D+03
 SCF Done:  E(RHF) =  -256.777919214     A.U. after   10 cycles
 E2 =    -0.9155069450D+00 EUMP2 =    -0.25769342615944D+03
 E2 =    -0.9155513320D+00 EUMP2 =    -0.25769344488186D+03
 E2 =    -0.9155588650D+00 EUMP2 =    -0.25769344031981D+03
 E2 =    -0.9155437177D+00 EUMP2 =    -0.25769344779197D+03
 E2 =    -0.9155691719D+00 EUMP2 =    -0.25769343585368D+03
 E2 =    -0.9155334833D+00 EUMP2 =    -0.25769345066892D+03
 E2 =    -0.9155512700D+00 EUMP2 =    -0.25769344495470D+03
 E2 =    -0.9154687152D+00 EUMP2 =    -0.25769343078374D+03
 E2 =    -0.9156339582D+00 EUMP2 =    -0.25769345754055D+03
 E2 =    -0.9156620399D+00 EUMP2 =    -0.25769349036698D+03
 E2 =    -0.9154405141D+00 EUMP2 =    -0.25769339799081D+03
 E2 =    -0.9155469965D+00 EUMP2 =    -0.25769345929593D+03
 E2 =    -0.9155555733D+00 EUMP2 =    -0.25769342939411D+03
 E2 =    -0.9154227799D+00 EUMP2 =    -0.25769339957352D+03
 E2 =    -0.9156798765D+00 EUMP2 =    -0.25769348849169D+03
 E2 =    -0.9155513089D+00 EUMP2 =    -0.25769344491174D+03
 E2 =    -0.9155747715D+00 EUMP2 =    -0.25769343509809D+03
 E2 =    -0.9155277814D+00 EUMP2 =    -0.25769345372649D+03
 E2 =    -0.9154718224D+00 EUMP2 =    -0.25769342557089D+03
 E2 =    -0.9156307652D+00 EUMP2 =    -0.25769346240966D+03
 E2 =    -0.9155512882D+00 EUMP2 =    -0.25769344493229D+03
 SCF Done:  E(RHF) =  -256.777882531     A.U. after    7 cycles
 E2 =    -0.9155619274D+00 EUMP2 =    -0.25769344445888D+03
 SCF Done:  E(RHF) =  -256.777903957     A.U. after    7 cycles
 E2 =    -0.9155405583D+00 EUMP2 =    -0.25769344451507D+03
 SCF Done:  E(RHF) =  -256.777889691     A.U. after    7 cycles
 E2 =    -0.9155557424D+00 EUMP2 =    -0.25769344543313D+03
 SCF Done:  E(RHF) =  -256.777897775     A.U. after    8 cycles
 E2 =    -0.9155467376D+00 EUMP2 =    -0.25769344451214D+03
 SCF Done:  E(RHF) =  -256.777893841     A.U. after    6 cycles
 E2 =    -0.9155512413D+00 EUMP2 =    -0.25769344508245D+03
 SCF Done:  E(RHF) =  -256.777896446     A.U. after    6 cycles
 E2 =    -0.9155474334D+00 EUMP2 =    -0.25769344387989D+03
 SCF Done:  E(RHF) =  -256.777891079     A.U. after    7 cycles
 E2 =    -0.9155550785D+00 EUMP2 =    -0.25769344615796D+03
 SCF Done:  E(RHF) =  -256.777868323     A.U. after    7 cycles
 E2 =    -0.9155818562D+00 EUMP2 =    -0.25769345017902D+03
 SCF Done:  E(RHF) =  -256.777917689     A.U. after    7 cycles
 E2 =    -0.9155205981D+00 EUMP2 =    -0.25769343828679D+03
 SCF Done:  E(RHF) =  -256.777893864     A.U. after    6 cycles
 E2 =    -0.9155512368D+00 EUMP2 =    -0.25769344510035D+03

 Alpha  occ. eigenvalues --  -15.68064 -15.66237 -15.64589 -15.60290 -11.33830
 Alpha  occ. eigenvalues --   -1.48947  -1.25024  -1.19136  -0.90192  -0.88424
 Alpha  occ. eigenvalues --   -0.79514  -0.67263  -0.67088  -0.56446  -0.47255
 Alpha  occ. eigenvalues --   -0.46768  -0.45005  -0.41486
 Alpha virt. eigenvalues --    0.14479   0.19163   0.19941   0.25395   0.35651
 Alpha virt. eigenvalues --    0.37699   0.43122   0.46241   0.58657   0.64395
 Alpha virt. eigenvalues --    0.65630   0.67034   0.72562   0.75462   0.76603

 Mulliken charges:
               1
     1  C    0.048473
     2  N   -0.250730
     3  N   -0.049648
     4  N   -0.075467
     5  N   -0.203755
     6  H    0.199486
     7  H    0.331642
 Sum of Mulliken charges =   0.00000

 Dipole moment (field-independent basis, Debye):
    X=              2.4597    Y=              4.7034    Z=              0.0016  Tot=              5.3078
 Quadrupole moment (field-independent basis, Debye-Ang):
   XX=            -28.5929   YY=            -26.0987   ZZ=            -28.3155
   XY=              1.8572   XZ=             -0.0001   YZ=              0.0038

                      1                      2                      3
                     A"                     A"                     A"
 Frequencies --    572.4183               697.2345               747.6785
 Red. masses --      1.6779                 2.1172                 8.3141
 Frc consts  --      0.3239                 0.6064                 2.7384
 IR Inten    --     87.5637                 6.5402                 8.6651

                      4                      5                      6
                     A"                     A'                     A'
 Frequencies --    901.0407               985.5493              1024.6188
 Red. masses --      1.3504                 5.1015                 6.5211
 Frc consts  --      0.6460                 2.9194                 4.0336
 IR Inten    --     12.5714                 2.8108                 1.1511

                      7                      8                      9
                     A'                     A'                     A'
 Frequencies --   1078.3666              1093.7668              1170.9723
 Red. masses --      5.4321                 3.0099                 1.8748
 Frc consts  --      3.7218                 2.1215                 1.5146
 IR Inten    --     17.4650                29.0914                14.2614

                     10                     11                     12
                     A'                     A'                     A'
 Frequencies --   1297.1174              1350.0768              1495.3443
 Red. masses --      2.4647                 9.9496                 3.0108
 Frc consts  --      2.4433                10.6850                 3.9665
 IR Inten    --      0.6152                17.0699                13.2029

                     13                     14                     15
                     A'                     A'                     A'
 Frequencies --   1545.8969              3337.4772              3738.1025
 Red. masses --      3.6092                 1.1016                 1.0838
 Frc consts  --      5.0818                 7.2293                 8.9230
 IR Inten    --     19.3293                 1.6897               114.3948

 - Thermochemistry -
 -------------------
 Temperature   298.150 Kelvin.  Pressure   1.00000 Atm.
 Atom     1 has atomic number  6 and mass  12.00000

 Molecular mass:    70.02795 amu.
 Principal axes and moments of inertia in atomic units:
                           1         2         3
     Eigenvalues --   170.60636 173.89922 344.50558
           X            0.83829   0.54522   0.00000
           Y           -0.54522   0.83829   0.00000
           Z            0.00000   0.00000   1.00000
 This molecule is an asymmetric top.
 Rotational symmetry number  1.
 Rotational temperatures (Kelvin)      0.50768     0.49807     0.25141
 Rotational constants (GHZ):          10.57839    10.37809     5.23864
 Zero-point vibrational energy     125821.2 (Joules/Mol)
                                   30.07199 (Kcal/Mol)
 Warning -- explicit consideration of   1 degrees of freedom as
           vibrations may cause significant error
 Vibrational temperatures:    823.58  1003.16  1075.74  1296.40  1417.98
          (Kelvin)           1474.20  1551.53  1573.68  1684.77  1866.26
                             1942.46  2151.46  2224.20  4801.88  5378.29

 Zero-point correction=                           0.047923 (Hartree/Particle)
 Thermal correction to Energy=                    0.051367
 Thermal correction to Enthalpy=                  0.052311
 Thermal correction to Gibbs Free Energy=         0.021840
 Sum of electronic and zero-point Energies=           -257.649312
 Sum of electronic and thermal Energies=              -257.645868
 Sum of electronic and thermal Enthalpies=            -257.644924
 Sum of electronic and thermal Free Energies=         -257.675395

                     E (Thermal)             CV                S
                      KCal/Mol        Cal/Mol-Kelvin    Cal/Mol-Kelvin
 Total                   32.233             11.094             64.132
 Electronic               0.000              0.000              0.000
 Translational            0.889              2.981             38.656
 Rotational               0.889              2.981             23.840
 Vibrational             30.456              5.133              1.636
 Vibration     1          0.929              1.091              0.500

 Optimization completed.
    -- Stationary point found.
 Normal termination of Gaussian 09 at Tue Dec 17 03:20:28 2013.
