 Gaussian 09, Revision D.01,
 Gaussian 09:  EM64L-G09RevD.01 24-Apr-2013

 --------------------------------------------
 #QCISD/aug-cc-pVDZ opt=z-matrix freq density
 --------------------------------------------

 ------------------------------------------------------------------
 1H-tetrazole CH2N4 casno=288948 state=1 config=1 method=5 basis=17
 ------------------------------------------------------------------
 Symbolic Z-matrix:
 Charge =  0 Multiplicity = 1

 SCF Done:  E(RHF) =  -256.797933873     A.U. after   15 cycles
 E2 =    -0.8075654250D+00 EUMP2 =    -0.25760549929751D+03
 SCF Done:  E(RHF) =  -256.792591506     A.U. after   13 cycles
 E2 =    -0.8216090214D+00 EUMP2 =    -0.25761420052707D+03
 SCF Done:  E(RHF) =  -256.791787500     A.U. after   11 cycles
 E2 =    -0.8226772985D+00 EUMP2 =    -0.25761446479811D+03
 SCF Done:  E(RHF) =  -256.792423524     A.U. after   13 cycles
 E2 =    -0.8215393974D+00 EUMP2 =    -0.25761396292163D+03
 SCF Done:  E(RHF) =  -256.791426765     A.U. after   12 cycles
 E2 =    -0.8231424268D+00 EUMP2 =    -0.25761456919149D+03
 SCF Done:  E(RHF) =  -256.791679073     A.U. after   10 cycles
 E2 =    -0.8228449569D+00 EUMP2 =    -0.25761452402944D+03
 SCF Done:  E(RHF) =  -256.791565173     A.U. after   10 cycles
 E2 =    -0.8229994806D+00 EUMP2 =    -0.25761456465388D+03
 SCF Done:  E(RHF) =  -256.791596356     A.U. after   11 cycles
 E2 =    -0.8229827819D+00 EUMP2 =    -0.25761457913797D+03
 SCF Done:  E(RHF) =  -256.791542866     A.U. after   10 cycles
 E2 =    -0.8230495889D+00 EUMP2 =    -0.25761459245495D+03
 SCF Done:  E(RHF) =  -256.791513069     A.U. after   10 cycles
 E2 =    -0.8230839642D+00 EUMP2 =    -0.25761459703279D+03
 E2 =    -0.8230474814D+00 EUMP2 =    -0.25761459679762D+03
 E2 =    -0.8229301967D+00 EUMP2 =    -0.25761461403837D+03
 E2 =    -0.8230643187D+00 EUMP2 =    -0.25761460568630D+03
 Optimization completed.
    -- Stationary point found.
 Normal termination of Gaussian 09 at Wed Nov 27 09:35:02 2013.

 ----------------------------------------------------------------------
 #N Geom=AllCheck Guess=TCheck SCRF=Check GenChk RQCISD(FC)/Aug-CC-pVDZ
  Freq
 ----------------------------------------------------------------------

 Structure from the checkpoint file:  "/tmp/rdj3/g09-23219/Gau-1729.chk"
 ------------------------------------------------------------------
 1H-tetrazole CH2N4 casno=288948 state=1 config=1 method=5 basis=17
 ------------------------------------------------------------------
 Charge =  0 Multiplicity = 1

                         Standard orientation:
 ---------------------------------------------------------------------
 Center     Atomic      Atomic             Coordinates (Angstroms)
 Number     Number       Type             X           Y           Z
 ---------------------------------------------------------------------
      1          6           0        1.072819    0.235959    0.000000
      2          7           0        0.000000    1.060994    0.000000
      3          7           0       -1.125817    0.303857    0.000000
      4          7           0       -0.730155   -0.929039    0.000000
      5          7           0        0.643854   -1.014712    0.000000
      6          1           0        2.107986    0.565860    0.000000
      7          1           0       -0.060077    2.070680    0.000000
 ---------------------------------------------------------------------

 E2 =    -0.8230643141D+00 EUMP2 =    -0.25761460568171D+03
 E2 =    -0.8231253234D+00 EUMP2 =    -0.25761461747136D+03
 E2 =    -0.8230034965D+00 EUMP2 =    -0.25761459064222D+03
 E2 =    -0.8231125169D+00 EUMP2 =    -0.25761462191139D+03
 E2 =    -0.8230160934D+00 EUMP2 =    -0.25761458700071D+03
 E2 =    -0.8230644238D+00 EUMP2 =    -0.25761460544399D+03
 E2 =    -0.8230714107D+00 EUMP2 =    -0.25761460053902D+03
 E2 =    -0.8230501569D+00 EUMP2 =    -0.25761461967298D+03
 E2 =    -0.8230785597D+00 EUMP2 =    -0.25761459018985D+03
 E2 =    -0.8229220013D+00 EUMP2 =    -0.25761456010459D+03
 E2 =    -0.8232068114D+00 EUMP2 =    -0.25761464915132D+03
 E2 =    -0.8230643996D+00 EUMP2 =    -0.25761460547072D+03
 E2 =    -0.8230956825D+00 EUMP2 =    -0.25761459634139D+03
 E2 =    -0.8230330227D+00 EUMP2 =    -0.25761461365752D+03
 E2 =    -0.8229719909D+00 EUMP2 =    -0.25761458669638D+03
 E2 =    -0.8231567434D+00 EUMP2 =    -0.25761462245268D+03
 E2 =    -0.8230643758D+00 EUMP2 =    -0.25761460548722D+03
 SCF Done:  E(RHF) =  -256.791522961     A.U. after    6 cycles
 E2 =    -0.8230808433D+00 EUMP2 =    -0.25761460380442D+03
 SCF Done:  E(RHF) =  -256.791558493     A.U. after    7 cycles
 E2 =    -0.8230477778D+00 EUMP2 =    -0.25761460627090D+03
 SCF Done:  E(RHF) =  -256.791535042     A.U. after    7 cycles
 E2 =    -0.8230705656D+00 EUMP2 =    -0.25761460560806D+03
 SCF Done:  E(RHF) =  -256.791547366     A.U. after    8 cycles
 E2 =    -0.8230580742D+00 EUMP2 =    -0.25761460543990D+03
 SCF Done:  E(RHF) =  -256.791541308     A.U. after    7 cycles
 E2 =    -0.8230643235D+00 EUMP2 =    -0.25761460563172D+03
 SCF Done:  E(RHF) =  -256.791543771     A.U. after    7 cycles
 E2 =    -0.8230607804D+00 EUMP2 =    -0.25761460455146D+03
 SCF Done:  E(RHF) =  -256.791538694     A.U. after    8 cycles
 E2 =    -0.8230678912D+00 EUMP2 =    -0.25761460658489D+03
 SCF Done:  E(RHF) =  -256.791511054     A.U. after    7 cycles
 E2 =    -0.8230989957D+00 EUMP2 =    -0.25761461004960D+03
 SCF Done:  E(RHF) =  -256.791569942     A.U. after    8 cycles
 E2 =    -0.8230296316D+00 EUMP2 =    -0.25761459957383D+03
 SCF Done:  E(RHF) =  -256.791541331     A.U. after    6 cycles
 E2 =    -0.8230643176D+00 EUMP2 =    -0.25761460564831D+03

 Alpha  occ. eigenvalues --  -15.69110 -15.67650 -15.66107 -15.61803 -11.35164
 Alpha  occ. eigenvalues --   -1.49072  -1.25489  -1.19731  -0.90774  -0.88947
 Alpha  occ. eigenvalues --   -0.79788  -0.67572  -0.67275  -0.57104  -0.48120
 Alpha  occ. eigenvalues --   -0.47872  -0.45441  -0.41995
 Alpha virt. eigenvalues --    0.01930   0.04143   0.08112   0.08640   0.10908
 Alpha virt. eigenvalues --    0.12411   0.12694   0.14280   0.15610   0.16113
 Alpha virt. eigenvalues --    0.16682   0.17935   0.19792   0.19902   0.21490

 Mulliken charges:
               1
     1  C    0.951553
     2  N   -0.065942
     3  N   -0.155702
     4  N   -0.254985
     5  N   -0.342731
     6  H   -0.115209
     7  H   -0.016984
 Sum of Mulliken charges =   0.00000

 Dipole moment (field-independent basis, Debye):
    X=              2.5110    Y=              4.7630    Z=              0.0016  Tot=              5.3844
 Quadrupole moment (field-independent basis, Debye-Ang):
   XX=            -29.6135   YY=            -27.2669   ZZ=            -29.4899
   XY=              1.9922   XZ=             -0.0001   YZ=              0.0038

                      1                      2                      3
                     A"                     A"                     A"
 Frequencies --    545.9369               683.2888               727.6775
 Red. masses --      1.6758                 2.0918                 8.6759
 Frc consts  --      0.2943                 0.5754                 2.7067
 IR Inten    --     84.8171                 6.3536                 7.4217

                      4                      5                      6
                     A"                     A'                     A'
 Frequencies --    866.0206               961.9893              1007.3467
 Red. masses --      1.3533                 5.0270                 6.9416
 Frc consts  --      0.5980                 2.7409                 4.1502
 IR Inten    --     17.9638                 2.8342                 0.2428

                      7                      8                      9
                     A'                     A'                     A'
 Frequencies --   1051.5891              1071.2655              1146.0685
 Red. masses --      4.7694                 3.0814                 1.8951
 Frc consts  --      3.1075                 2.0835                 1.4666
 IR Inten    --     20.6314                25.5094                13.2179

                     10                     11                     12
                     A'                     A'                     A'
 Frequencies --   1273.8608              1325.2313              1481.6339
 Red. masses --      2.5108                10.0844                 3.1838
 Frc consts  --      2.4005                10.4348                 4.1179
 IR Inten    --      0.2806                15.4951                12.5948

                     13                     14                     15
                     A'                     A'                     A'
 Frequencies --   1523.4077              3312.7659              3690.8635
 Red. masses --      3.3425                 1.1023                 1.0844
 Frc consts  --      4.5704                 7.1277                 8.7032
 IR Inten    --     19.4736                 1.4249               101.3594

 - Thermochemistry -
 -------------------
 Temperature   298.150 Kelvin.  Pressure   1.00000 Atm.
 Atom     1 has atomic number  6 and mass  12.00000

 Molecular mass:    70.02795 amu.
 Principal axes and moments of inertia in atomic units:
                           1         2         3
     Eigenvalues --   173.36288 176.70059 350.06347
           X            0.86931   0.49427   0.00000
           Y           -0.49427   0.86931   0.00000
           Z            0.00000   0.00000   1.00000
 This molecule is an asymmetric top.
 Rotational symmetry number  1.
 Rotational temperatures (Kelvin)      0.49961     0.49017     0.24742
 Rotational constants (GHZ):          10.41019    10.21355     5.15547
 Zero-point vibrational energy     123627.8 (Joules/Mol)
                                   29.54774 (Kcal/Mol)
 Warning -- explicit consideration of   1 degrees of freedom as
           vibrations may cause significant error
 Vibrational temperatures:    785.48   983.10  1046.96  1246.01  1384.09
          (Kelvin)           1449.35  1513.00  1541.31  1648.93  1832.80
                             1906.71  2131.74  2191.84  4766.33  5310.32

 Zero-point correction=                           0.047087 (Hartree/Particle)
 Thermal correction to Energy=                    0.050585
 Thermal correction to Enthalpy=                  0.051529
 Thermal correction to Gibbs Free Energy=         0.020962
 Sum of electronic and zero-point Energies=           -257.574246
 Sum of electronic and thermal Energies=              -257.570749
 Sum of electronic and thermal Enthalpies=            -257.569805
 Sum of electronic and thermal Free Energies=         -257.600371

                     E (Thermal)             CV                S
                      KCal/Mol        Cal/Mol-Kelvin    Cal/Mol-Kelvin
 Total                   31.742             11.406             64.333
 Electronic               0.000              0.000              0.000
 Translational            0.889              2.981             38.656
 Rotational               0.889              2.981             23.887
 Vibrational             29.965              5.444              1.790
 Vibration     1          0.901              1.149              0.553

 Optimization completed.
    -- Stationary point found.
 Normal termination of Gaussian 09 at Wed Nov 27 16:26:25 2013.
