 Gaussian 09, Revision D.01,
 Gaussian 09:  EM64L-G09RevD.01 24-Apr-2013

 --------------------------------------
 #QCISD/3-21G opt=z-matrix freq density
 --------------------------------------

 -----------------------------------------------------------------
 1H-tetrazole CH2N4 casno=288948 state=1 config=1 method=5 basis=2
 -----------------------------------------------------------------
 Symbolic Z-matrix:
 Charge =  0 Multiplicity = 1

 SCF Done:  E(RHF) =  -255.261114440     A.U. after   14 cycles
 E2 =    -0.5240768282D+00 EUMP2 =    -0.25578519126841D+03
 SCF Done:  E(RHF) =  -255.265025668     A.U. after   15 cycles
 E2 =    -0.5496049906D+00 EUMP2 =    -0.25581463065855D+03
 SCF Done:  E(RHF) =  -255.259520097     A.U. after   14 cycles
 E2 =    -0.5586668746D+00 EUMP2 =    -0.25581818697115D+03
 SCF Done:  E(RHF) =  -255.256681117     A.U. after   14 cycles
 E2 =    -0.5590236304D+00 EUMP2 =    -0.25581570474728D+03
 SCF Done:  E(RHF) =  -255.258648285     A.U. after   14 cycles
 E2 =    -0.5589678177D+00 EUMP2 =    -0.25581761610267D+03
 SCF Done:  E(RHF) =  -255.259812426     A.U. after   12 cycles
 E2 =    -0.5592588852D+00 EUMP2 =    -0.25581907131093D+03
 SCF Done:  E(RHF) =  -255.260230043     A.U. after   13 cycles
 E2 =    -0.5582409858D+00 EUMP2 =    -0.25581847102833D+03
 SCF Done:  E(RHF) =  -255.259316404     A.U. after   13 cycles
 E2 =    -0.5598576129D+00 EUMP2 =    -0.25581917401728D+03
 SCF Done:  E(RHF) =  -255.258964001     A.U. after   12 cycles
 E2 =    -0.5603078660D+00 EUMP2 =    -0.25581927186668D+03
 SCF Done:  E(RHF) =  -255.259933118     A.U. after   14 cycles
 E2 =    -0.5586494970D+00 EUMP2 =    -0.25581858261526D+03
 E2 =    -0.5602136034D+00 EUMP2 =    -0.25581914594864D+03
 E2 =    -0.5601129013D+00 EUMP2 =    -0.25581912907605D+03
 E2 =    -0.5574634630D+00 EUMP2 =    -0.25581812297544D+03
 E2 =    -0.5600115438D+00 EUMP2 =    -0.25581907962687D+03
 E2 =    -0.5599829295D+00 EUMP2 =    -0.25581908044185D+03
 E2 =    -0.5594805606D+00 EUMP2 =    -0.25581913762846D+03
 E2 =    -0.5599863899D+00 EUMP2 =    -0.25581909168032D+03
 Optimization completed.
    -- Stationary point found.
 Normal termination of Gaussian 09 at Wed Nov 27 23:47:08 2013.

 ---------------------------------------------------------------------
 #N Geom=AllCheck Guess=TCheck SCRF=Check GenChk RQCISD(FC)/3-21G Freq
 ---------------------------------------------------------------------

 Structure from the checkpoint file:  "/tmp/rdj3/g09-23219/Gau-17849.chk"
 -----------------------------------------------------------------
 1H-tetrazole CH2N4 casno=288948 state=1 config=1 method=5 basis=2
 -----------------------------------------------------------------
 Charge =  0 Multiplicity = 1

                         Standard orientation:
 ---------------------------------------------------------------------
 Center     Atomic      Atomic             Coordinates (Angstroms)
 Number     Number       Type             X           Y           Z
 ---------------------------------------------------------------------
      1          6           0        1.086443    0.259713    0.000000
      2          7           0        0.000000    1.096851    0.000000
      3          7           0       -1.181767    0.287358    0.000000
      4          7           0       -0.759093   -0.975000    0.000000
      5          7           0        0.718236   -1.019469    0.000000
      6          1           0        2.107557    0.606428    0.000000
      7          1           0       -0.067843    2.107113    0.000000
 ---------------------------------------------------------------------

 E2 =    -0.5599863906D+00 EUMP2 =    -0.25581909168109D+03
 E2 =    -0.5600348556D+00 EUMP2 =    -0.25581910009785D+03
 E2 =    -0.5599381195D+00 EUMP2 =    -0.25581908027481D+03
 E2 =    -0.5599644825D+00 EUMP2 =    -0.25581909961269D+03
 E2 =    -0.5600084177D+00 EUMP2 =    -0.25581908281502D+03
 E2 =    -0.5598379408D+00 EUMP2 =    -0.25581904452994D+03
 E2 =    -0.5601350440D+00 EUMP2 =    -0.25581913739936D+03
 E2 =    -0.5599864745D+00 EUMP2 =    -0.25581909151437D+03
 E2 =    -0.5600380753D+00 EUMP2 =    -0.25581909347594D+03
 E2 =    -0.5599347998D+00 EUMP2 =    -0.25581908902764D+03
 E2 =    -0.5598828468D+00 EUMP2 =    -0.25581907110893D+03
 E2 =    -0.5600900367D+00 EUMP2 =    -0.25581911037136D+03
 E2 =    -0.5599864621D+00 EUMP2 =    -0.25581909151880D+03
 SCF Done:  E(RHF) =  -255.259082175     A.U. after    8 cycles
 E2 =    -0.5600047264D+00 EUMP2 =    -0.25581908690098D+03
 SCF Done:  E(RHF) =  -255.259127137     A.U. after    9 cycles
 E2 =    -0.5599680729D+00 EUMP2 =    -0.25581909521020D+03
 SCF Done:  E(RHF) =  -255.259097163     A.U. after    9 cycles
 E2 =    -0.5599935225D+00 EUMP2 =    -0.25581909068539D+03
 SCF Done:  E(RHF) =  -255.259113069     A.U. after   10 cycles
 E2 =    -0.5599792958D+00 EUMP2 =    -0.25581909236464D+03
 SCF Done:  E(RHF) =  -255.259105223     A.U. after    7 cycles
 E2 =    -0.5599864151D+00 EUMP2 =    -0.25581909163807D+03
 SCF Done:  E(RHF) =  -255.259106995     A.U. after    9 cycles
 E2 =    -0.5599841869D+00 EUMP2 =    -0.25581909118210D+03
 SCF Done:  E(RHF) =  -255.259103320     A.U. after   10 cycles
 E2 =    -0.5599886543D+00 EUMP2 =    -0.25581909197434D+03
 SCF Done:  E(RHF) =  -255.259073497     A.U. after    8 cycles
 E2 =    -0.5600192805D+00 EUMP2 =    -0.25581909277757D+03
 SCF Done:  E(RHF) =  -255.259135410     A.U. after    9 cycles
 E2 =    -0.5599535354D+00 EUMP2 =    -0.25581908894587D+03
 SCF Done:  E(RHF) =  -255.259105248     A.U. after    7 cycles
 E2 =    -0.5599864116D+00 EUMP2 =    -0.25581909165952D+03

 Alpha  occ. eigenvalues --  -15.62316 -15.61528 -15.60354 -15.55446 -11.30879
 Alpha  occ. eigenvalues --   -1.46781  -1.23392  -1.20842  -0.89281  -0.87550
 Alpha  occ. eigenvalues --   -0.79543  -0.65589  -0.65416  -0.55725  -0.48496
 Alpha  occ. eigenvalues --   -0.46167  -0.44862  -0.42783
 Alpha virt. eigenvalues --    0.11751   0.16817   0.23091   0.25328   0.33266
 Alpha virt. eigenvalues --    0.37288   0.45710   0.54356   0.61211   0.92377
 Alpha virt. eigenvalues --    0.93835   1.04607   1.09177   1.20760   1.31684

 Mulliken charges:
               1
     1  C    0.324775
     2  N   -0.548545
     3  N   -0.018886
     4  N   -0.066476
     5  N   -0.333679
     6  H    0.269815
     7  H    0.372995
 Sum of Mulliken charges =   0.00000

 Dipole moment (field-independent basis, Debye):
    X=              2.3886    Y=              4.8749    Z=              0.0020  Tot=              5.4286
 Quadrupole moment (field-independent basis, Debye-Ang):
   XX=            -29.6536   YY=            -27.2143   ZZ=            -28.9174
   XY=              2.1288   XZ=             -0.0001   YZ=              0.0044

                      1                      2                      3
                     A"                     A"                     A"
 Frequencies --    585.6561               659.1960               674.2475
 Red. masses --      1.9257                 1.7394                 9.0144
 Frc consts  --      0.3891                 0.4453                 2.4145
 IR Inten    --    136.1461                26.2676                10.1609

                      4                      5                      6
                     A'                     A'                     A"
 Frequencies --    724.9431               847.6100               911.6651
 Red. masses --     11.3848                 6.0606                 1.3664
 Frc consts  --      3.5252                 2.5654                 0.6691
 IR Inten    --     13.0403                16.5999                16.1993

                      7                      8                      9
                     A'                     A'                     A'
 Frequencies --    969.0982              1000.4995              1061.3634
 Red. masses --      5.1689                 7.0087                 7.4826
 Frc consts  --      2.8601                 4.1335                 4.9663
 IR Inten    --      7.3832                 6.5986                 2.8918

                     10                     11                     12
                     A'                     A'                     A'
 Frequencies --   1130.9908              1221.2305              1366.5534
 Red. masses --      2.6868                 2.0640                 2.2187
 Frc consts  --      2.0249                 1.8136                 2.4412
 IR Inten    --     13.0412                10.5913                 8.2876

                     13                     14                     15
                     A'                     A'                     A'
 Frequencies --   1442.2283              3295.8527              3605.8280
 Red. masses --      2.0528                 1.0996                 1.0842
 Frc consts  --      2.5157                 7.0374                 8.3058
 IR Inten    --     43.7182                 1.1970               106.7075

 - Thermochemistry -
 -------------------
 Temperature   298.150 Kelvin.  Pressure   1.00000 Atm.
 Atom     1 has atomic number  6 and mass  12.00000

 Molecular mass:    70.02795 amu.
 Principal axes and moments of inertia in atomic units:
                           1         2         3
     Eigenvalues --   183.55715 190.88738 374.44453
           X            0.99554   0.09433   0.00000
           Y           -0.09433   0.99554   0.00000
           Z            0.00000   0.00000   1.00000
 This molecule is an asymmetric top.
 Rotational symmetry number  1.
 Rotational temperatures (Kelvin)      0.47186     0.45374     0.23131
 Rotational constants (GHZ):           9.83204     9.45448     4.81978
 Zero-point vibrational energy     116617.7 (Joules/Mol)
                                   27.87231 (Kcal/Mol)
 Warning -- explicit consideration of   1 degrees of freedom as
           vibrations may cause significant error
 Vibrational temperatures:    842.63   948.43   970.09  1043.03  1219.52
          (Kelvin)           1311.68  1394.31  1439.49  1527.06  1627.24
                             1757.08  1966.16  2075.04  4741.99  5187.98

 Zero-point correction=                           0.044417 (Hartree/Particle)
 Thermal correction to Energy=                    0.048051
 Thermal correction to Enthalpy=                  0.048996
 Thermal correction to Gibbs Free Energy=         0.018160
 Sum of electronic and zero-point Energies=           -255.778915
 Sum of electronic and thermal Energies=              -255.775281
 Sum of electronic and thermal Enthalpies=            -255.774337
 Sum of electronic and thermal Free Energies=         -255.805172

                     E (Thermal)             CV                S
                      KCal/Mol        Cal/Mol-Kelvin    Cal/Mol-Kelvin
 Total                   30.153             12.414             64.899
 Electronic               0.000              0.000              0.000
 Translational            0.889              2.981             38.656
 Rotational               0.889              2.981             24.088
 Vibrational             28.375              6.453              2.155
 Vibration     1          0.943              1.062              0.475

 Optimization completed.
    -- Stationary point found.
 Normal termination of Gaussian 09 at Thu Nov 28 00:00:34 2013.
