 Gaussian 09, Revision D.01,
 Gaussian 09:  EM64L-G09RevD.01 24-Apr-2013

 -----------------------------------
 #QCISD/6-311G(d,p) opt freq density
 -----------------------------------

 ------------------------------------------------------------------
 1H-tetrazole CH2N4 casno=288948 state=1 config=1 method=5 basis=21
 ------------------------------------------------------------------
 Symbolic Z-matrix:
 Charge =  0 Multiplicity = 1

 SCF Done:  E(RHF) =  -256.816035151     A.U. after   14 cycles
 E2 =    -0.8205367116D+00 EUMP2 =    -0.25763657186277D+03
 SCF Done:  E(RHF) =  -256.811857445     A.U. after   12 cycles
 E2 =    -0.8298633623D+00 EUMP2 =    -0.25764172080734D+03
 SCF Done:  E(RHF) =  -256.811253758     A.U. after   11 cycles
 E2 =    -0.8306668839D+00 EUMP2 =    -0.25764192064219D+03
 SCF Done:  E(RHF) =  -256.811149243     A.U. after   10 cycles
 E2 =    -0.8308167388D+00 EUMP2 =    -0.25764196598187D+03
 SCF Done:  E(RHF) =  -256.811227612     A.U. after    9 cycles
 E2 =    -0.8307222863D+00 EUMP2 =    -0.25764194989806D+03
 Optimization completed.
    -- Stationary point found.
 Normal termination of Gaussian 09 at Tue Dec 17 04:25:08 2013.

 ----------------------------------------------------------------------
 #N Geom=AllCheck Guess=TCheck SCRF=Check GenChk RQCISD(FC)/6-311G(d,p)
  Freq
 ----------------------------------------------------------------------

 Structure from the checkpoint file:  "/tmp/rdj3/g09-18029/Gau-594.chk"
 ------------------------------------------------------------------
 1H-tetrazole CH2N4 casno=288948 state=1 config=1 method=5 basis=21
 ------------------------------------------------------------------
 Charge =  0 Multiplicity = 1

                         Standard orientation:
 ---------------------------------------------------------------------
 Center     Atomic      Atomic             Coordinates (Angstroms)
 Number     Number       Type             X           Y           Z
 ---------------------------------------------------------------------
      1          6           0        1.067128    0.232098    0.000000
      2          7           0        0.000000    1.055879    0.000000
      3          7           0       -1.118933    0.301326    0.000000
      4          7           0       -0.726106   -0.921939    0.000000
      5          7           0        0.639903   -1.008492    0.000000
      6          1           0        2.095318    0.559194    0.000000
      7          1           0       -0.062136    2.060798    0.000000
 ---------------------------------------------------------------------

 SCF Done:  E(RHF) =  -256.811227612     A.U. after    1 cycles
 E2 =    -0.8307222882D+00 EUMP2 =    -0.25764194989997D+03
 SCF Done:  E(RHF) =  -256.811186662     A.U. after    9 cycles
 E2 =    -0.8307718619D+00 EUMP2 =    -0.25764195852381D+03
 SCF Done:  E(RHF) =  -256.811265073     A.U. after    9 cycles
 E2 =    -0.8306729443D+00 EUMP2 =    -0.25764193801687D+03
 SCF Done:  E(RHF) =  -256.811198691     A.U. after    9 cycles
 E2 =    -0.8307658636D+00 EUMP2 =    -0.25764196455505D+03
 SCF Done:  E(RHF) =  -256.811254022     A.U. after   10 cycles
 E2 =    -0.8306787457D+00 EUMP2 =    -0.25764193276819D+03
 E2 =    -0.8307224028D+00 EUMP2 =    -0.25764194966232D+03
 E2 =    -0.8307298746D+00 EUMP2 =    -0.25764194607621D+03
 E2 =    -0.8307148135D+00 EUMP2 =    -0.25764195159712D+03
 E2 =    -0.8307445108D+00 EUMP2 =    -0.25764194071174D+03
 E2 =    -0.8307002673D+00 EUMP2 =    -0.25764195537692D+03
 E2 =    -0.8307223457D+00 EUMP2 =    -0.25764194973815D+03
 E2 =    -0.8306360530D+00 EUMP2 =    -0.25764193726375D+03
 E2 =    -0.8308087361D+00 EUMP2 =    -0.25764196061300D+03
 E2 =    -0.8308316809D+00 EUMP2 =    -0.25764199152886D+03
 E2 =    -0.8306130002D+00 EUMP2 =    -0.25764190638580D+03
 E2 =    -0.8307151269D+00 EUMP2 =    -0.25764196359482D+03
 E2 =    -0.8307295766D+00 EUMP2 =    -0.25764193467149D+03
 E2 =    -0.8305947439D+00 EUMP2 =    -0.25764190870145D+03
 E2 =    -0.8308500328D+00 EUMP2 =    -0.25764198891462D+03
 E2 =    -0.8307223762D+00 EUMP2 =    -0.25764194969042D+03
 E2 =    -0.8307491897D+00 EUMP2 =    -0.25764194095791D+03
 E2 =    -0.8306954912D+00 EUMP2 =    -0.25764195744335D+03
 E2 =    -0.8306392258D+00 EUMP2 =    -0.25764193308794D+03
 E2 =    -0.8308054800D+00 EUMP2 =    -0.25764196444116D+03
 E2 =    -0.8307223556D+00 EUMP2 =    -0.25764194970990D+03
 SCF Done:  E(RHF) =  -256.811212438     A.U. after    7 cycles
 E2 =    -0.8307357753D+00 EUMP2 =    -0.25764194821305D+03
 SCF Done:  E(RHF) =  -256.811241493     A.U. after    7 cycles
 E2 =    -0.8307088290D+00 EUMP2 =    -0.25764195032156D+03
 SCF Done:  E(RHF) =  -256.811222246     A.U. after    7 cycles
 E2 =    -0.8307275781D+00 EUMP2 =    -0.25764194982373D+03
 SCF Done:  E(RHF) =  -256.811232648     A.U. after    8 cycles
 E2 =    -0.8307170264D+00 EUMP2 =    -0.25764194967455D+03
 SCF Done:  E(RHF) =  -256.811227552     A.U. after    6 cycles
 E2 =    -0.8307223045D+00 EUMP2 =    -0.25764194985618D+03
 SCF Done:  E(RHF) =  -256.811230236     A.U. after    6 cycles
 E2 =    -0.8307185600D+00 EUMP2 =    -0.25764194879593D+03
 SCF Done:  E(RHF) =  -256.811224712     A.U. after    7 cycles
 E2 =    -0.8307260751D+00 EUMP2 =    -0.25764195078659D+03
 SCF Done:  E(RHF) =  -256.811200830     A.U. after    7 cycles
 E2 =    -0.8307527836D+00 EUMP2 =    -0.25764195361407D+03
 SCF Done:  E(RHF) =  -256.811252628     A.U. after    8 cycles
 E2 =    -0.8306918076D+00 EUMP2 =    -0.25764194443530D+03
 SCF Done:  E(RHF) =  -256.811227574     A.U. after    6 cycles
 E2 =    -0.8307222994D+00 EUMP2 =    -0.25764194987302D+03

 Alpha  occ. eigenvalues --  -15.68065 -15.66209 -15.64391 -15.60194 -11.34029
 Alpha  occ. eigenvalues --   -1.49546  -1.25510  -1.19826  -0.90700  -0.88907
 Alpha  occ. eigenvalues --   -0.80018  -0.67666  -0.67529  -0.56943  -0.47833
 Alpha  occ. eigenvalues --   -0.47268  -0.45445  -0.42050
 Alpha virt. eigenvalues --    0.12774   0.13413   0.16661   0.18249   0.33021
 Alpha virt. eigenvalues --    0.35970   0.37291   0.46077   0.51953   0.56431
 Alpha virt. eigenvalues --    0.61439   0.62496   0.68578   0.74624   0.77528

 Mulliken charges:
               1
     1  C    0.232215
     2  N   -0.278268
     3  N   -0.023784
     4  N   -0.079086
     5  N   -0.244363
     6  H    0.143526
     7  H    0.249760
 Sum of Mulliken charges =   0.00000

 Dipole moment (field-independent basis, Debye):
    X=              2.4504    Y=              4.7682    Z=              0.0017  Tot=              5.3610
 Quadrupole moment (field-independent basis, Debye-Ang):
   XX=            -29.1895   YY=            -26.8074   ZZ=            -28.5101
   XY=              1.8663   XZ=             -0.0001   YZ=              0.0038

                      1                      2                      3
                     A"                     A"                     A"
 Frequencies --    561.5093               692.7986               737.2070
 Red. masses --      1.8170                 2.0145                 7.3705
 Frc consts  --      0.3375                 0.5697                 2.3601
 IR Inten    --     88.5882                 9.6051                10.3324

                      4                      5                      6
                     A"                     A'                     A'
 Frequencies --    888.1518               979.0300              1021.0795
 Red. masses --      1.3398                 5.0740                 7.1104
 Frc consts  --      0.6227                 2.8654                 4.3678
 IR Inten    --     17.0509                 2.4781                 0.4766

                      7                      8                      9
                     A'                     A'                     A'
 Frequencies --   1069.4784              1090.2059              1163.4133
 Red. masses --      4.6969                 3.0340                 1.9302
 Frc consts  --      3.1653                 2.1246                 1.5393
 IR Inten    --     20.5506                26.5217                14.7248

                     10                     11                     12
                     A'                     A'                     A'
 Frequencies --   1294.0245              1348.3865              1495.3750
 Red. masses --      2.5806                 8.8227                 3.1487
 Frc consts  --      2.5460                 9.4511                 4.1485
 IR Inten    --      0.1231                18.9509                12.1824

                     13                     14                     15
                     A'                     A'                     A'
 Frequencies --   1546.1395              3316.2996              3718.2326
 Red. masses --      3.3569                 1.1018                 1.0838
 Frc consts  --      4.7280                 7.1394                 8.8286
 IR Inten    --     19.6154                 0.9253               107.1223

 - Thermochemistry -
 -------------------
 Temperature   298.150 Kelvin.  Pressure   1.00000 Atm.
 Atom     1 has atomic number  6 and mass  12.00000

 Molecular mass:    70.02795 amu.
 Principal axes and moments of inertia in atomic units:
                           1         2         3
     Eigenvalues --   171.13785 174.74321 345.88107
           X            0.86802   0.49653   0.00000
           Y           -0.49653   0.86802   0.00000
           Z            0.00000   0.00000   1.00000
 This molecule is an asymmetric top.
 Rotational symmetry number  1.
 Rotational temperatures (Kelvin)      0.50611     0.49566     0.25042
 Rotational constants (GHZ):          10.54554    10.32796     5.21781
 Zero-point vibrational energy     125137.4 (Joules/Mol)
                                   29.90854 (Kcal/Mol)
 Warning -- explicit consideration of   1 degrees of freedom as
           vibrations may cause significant error
 Vibrational temperatures:    807.89   996.78  1060.68  1277.85  1408.60
          (Kelvin)           1469.10  1538.74  1568.56  1673.89  1861.81
                             1940.03  2151.51  2224.55  4771.41  5349.70

 Zero-point correction=                           0.047662 (Hartree/Particle)
 Thermal correction to Energy=                    0.051125
 Thermal correction to Enthalpy=                  0.052069
 Thermal correction to Gibbs Free Energy=         0.021567
 Sum of electronic and zero-point Energies=           -257.599677
 Sum of electronic and thermal Energies=              -257.596214
 Sum of electronic and thermal Enthalpies=            -257.595270
 Sum of electronic and thermal Free Energies=         -257.625772

                     E (Thermal)             CV                S
                      KCal/Mol        Cal/Mol-Kelvin    Cal/Mol-Kelvin
 Total                   32.081             11.193             64.198
 Electronic               0.000              0.000              0.000
 Translational            0.889              2.981             38.656
 Rotational               0.889              2.981             23.851
 Vibrational             30.304              5.232              1.690
 Vibration     1          0.917              1.115              0.521

 Optimization completed.
    -- Stationary point found.
 Normal termination of Gaussian 09 at Tue Dec 17 06:35:01 2013.
