 Gaussian 09, Revision D.01,
 Gaussian 09:  EM64L-G09RevD.01 24-Apr-2013

 -------------------------------------
 #QCISD/TZVP opt=z-matrix freq density
 -------------------------------------

 ------------------------------------------------------------------
 1H-tetrazole CH2N4 casno=288948 state=1 config=1 method=5 basis=32
 ------------------------------------------------------------------
 Symbolic Z-matrix:
 Charge =  0 Multiplicity = 1

 SCF Done:  E(RHF) =  -256.833827633     A.U. after   14 cycles
 E2 =    -0.8219230097D+00 EUMP2 =    -0.25765575064235D+03
 SCF Done:  E(RHF) =  -256.830087114     A.U. after   13 cycles
 E2 =    -0.8302869322D+00 EUMP2 =    -0.25766037404583D+03
 SCF Done:  E(RHF) =  -256.829508215     A.U. after   11 cycles
 E2 =    -0.8310511853D+00 EUMP2 =    -0.25766055940077D+03
 SCF Done:  E(RHF) =  -256.829752892     A.U. after   12 cycles
 E2 =    -0.8306254179D+00 EUMP2 =    -0.25766037831017D+03
 SCF Done:  E(RHF) =  -256.829258188     A.U. after   11 cycles
 E2 =    -0.8313402453D+00 EUMP2 =    -0.25766059843354D+03
 SCF Done:  E(RHF) =  -256.829441220     A.U. after   11 cycles
 E2 =    -0.8311309660D+00 EUMP2 =    -0.25766057218622D+03
 SCF Done:  E(RHF) =  -256.829220710     A.U. after   11 cycles
 E2 =    -0.8313734856D+00 EUMP2 =    -0.25766059419529D+03
 SCF Done:  E(RHF) =  -256.822904502     A.U. after   14 cycles
 E2 =    -0.8318484225D+00 EUMP2 =    -0.25765475292414D+03
 SCF Done:  E(RHF) =  -256.828469136     A.U. after   13 cycles
 E2 =    -0.8312453689D+00 EUMP2 =    -0.25765971450509D+03
 SCF Done:  E(RHF) =  -256.825008574     A.U. after   14 cycles
 E2 =    -0.8250683627D+00 EUMP2 =    -0.25765007693642D+03
 E2 =    -0.8313080885D+00 EUMP2 =    -0.25766058086373D+03
 E2 =    -0.8313057647D+00 EUMP2 =    -0.25766030645896D+03
 E2 =    -0.8312926979D+00 EUMP2 =    -0.25766059139071D+03
 E2 =    -0.8312646422D+00 EUMP2 =    -0.25766058142181D+03
 Optimization completed.
    -- Stationary point found.
 Normal termination of Gaussian 09 at Thu Nov 28 00:49:02 2013.

 --------------------------------------------------------------------
 #N Geom=AllCheck Guess=TCheck SCRF=Check GenChk RQCISD(FC)/TZVP Freq
 --------------------------------------------------------------------

 Structure from the checkpoint file:  "/tmp/rdj3/g09-23219/Gau-23919.chk"
 ------------------------------------------------------------------
 1H-tetrazole CH2N4 casno=288948 state=1 config=1 method=5 basis=32
 ------------------------------------------------------------------
 Charge =  0 Multiplicity = 1

                         Standard orientation:
 ---------------------------------------------------------------------
 Center     Atomic      Atomic             Coordinates (Angstroms)
 Number     Number       Type             X           Y           Z
 ---------------------------------------------------------------------
      1          6           0        1.064555    0.234002    0.000000
      2          7           0        0.000000    1.055387    0.000000
      3          7           0       -1.119387    0.297840    0.000000
      4          7           0       -0.725845   -0.922885    0.000000
      5          7           0        0.643176   -1.005071    0.000000
      6          1           0        2.089100    0.559909    0.000000
      7          1           0       -0.062041    2.059181    0.000000
 ---------------------------------------------------------------------

 E2 =    -0.8312646454D+00 EUMP2 =    -0.25766058142497D+03
 E2 =    -0.8313120236D+00 EUMP2 =    -0.25766058919249D+03
 E2 =    -0.8312175259D+00 EUMP2 =    -0.25766057039862D+03
 E2 =    -0.8313077429D+00 EUMP2 =    -0.25766059597071D+03
 E2 =    -0.8312216059D+00 EUMP2 =    -0.25766056442520D+03
 E2 =    -0.8312647901D+00 EUMP2 =    -0.25766058123677D+03
 E2 =    -0.8312577082D+00 EUMP2 =    -0.25766059553970D+03
 E2 =    -0.8312717378D+00 EUMP2 =    -0.25766056586143D+03
 E2 =    -0.8311390120D+00 EUMP2 =    -0.25766054077214D+03
 E2 =    -0.8313905077D+00 EUMP2 =    -0.25766061995663D+03
 E2 =    -0.8312647490D+00 EUMP2 =    -0.25766058123600D+03
 E2 =    -0.8312934625D+00 EUMP2 =    -0.25766057280627D+03
 E2 =    -0.8312359595D+00 EUMP2 =    -0.25766058871841D+03
 E2 =    -0.8311846489D+00 EUMP2 =    -0.25766056367379D+03
 E2 =    -0.8313447940D+00 EUMP2 =    -0.25766059693308D+03
 E2 =    -0.8312647268D+00 EUMP2 =    -0.25766058125487D+03
 SCF Done:  E(RHF) =  -256.829305666     A.U. after    7 cycles
 E2 =    -0.8312746631D+00 EUMP2 =    -0.25766058032950D+03
 SCF Done:  E(RHF) =  -256.829326578     A.U. after    7 cycles
 E2 =    -0.8312546748D+00 EUMP2 =    -0.25766058125305D+03
 SCF Done:  E(RHF) =  -256.829312701     A.U. after    7 cycles
 E2 =    -0.8312687646D+00 EUMP2 =    -0.25766058146568D+03
 SCF Done:  E(RHF) =  -256.829320524     A.U. after    8 cycles
 E2 =    -0.8312605613D+00 EUMP2 =    -0.25766058108566D+03
 SCF Done:  E(RHF) =  -256.829316723     A.U. after    7 cycles
 E2 =    -0.8312646689D+00 EUMP2 =    -0.25766058139140D+03
 SCF Done:  E(RHF) =  -256.829318810     A.U. after    6 cycles
 E2 =    -0.8312615379D+00 EUMP2 =    -0.25766058034791D+03
 SCF Done:  E(RHF) =  -256.829314474     A.U. after    7 cycles
 E2 =    -0.8312678207D+00 EUMP2 =    -0.25766058229435D+03
 SCF Done:  E(RHF) =  -256.829291130     A.U. after    7 cycles
 E2 =    -0.8312944839D+00 EUMP2 =    -0.25766058561380D+03
 SCF Done:  E(RHF) =  -256.829340660     A.U. after    8 cycles
 E2 =    -0.8312348438D+00 EUMP2 =    -0.25766057550395D+03
 SCF Done:  E(RHF) =  -256.829316743     A.U. after    6 cycles
 E2 =    -0.8312646660D+00 EUMP2 =    -0.25766058140894D+03

 Alpha  occ. eigenvalues --  -15.68455 -15.66799 -15.65002 -15.60692 -11.34133
 Alpha  occ. eigenvalues --   -1.50052  -1.25849  -1.20394  -0.91039  -0.89363
 Alpha  occ. eigenvalues --   -0.80501  -0.68065  -0.67860  -0.57315  -0.48092
 Alpha  occ. eigenvalues --   -0.47647  -0.45765  -0.42534
 Alpha virt. eigenvalues --    0.11208   0.12392   0.16737   0.16892   0.22181
 Alpha virt. eigenvalues --    0.23694   0.32798   0.32824   0.38456   0.40222
 Alpha virt. eigenvalues --    0.43896   0.47346   0.48828   0.49577   0.51370

 Mulliken charges:
               1
     1  C   -0.100042
     2  N   -0.093905
     3  N   -0.058475
     4  N   -0.068365
     5  N   -0.066579
     6  H    0.132188
     7  H    0.255178
 Sum of Mulliken charges =   0.00000

 Dipole moment (field-independent basis, Debye):
    X=              2.5126    Y=              4.8717    Z=              0.0017  Tot=              5.4815
 Quadrupole moment (field-independent basis, Debye-Ang):
   XX=            -29.6172   YY=            -27.1801   ZZ=            -28.7936
   XY=              1.9624   XZ=             -0.0001   YZ=              0.0039

                      1                      2                      3
                     A"                     A"                     A"
 Frequencies --    453.3450               677.7434               717.0322
 Red. masses --      1.8945                 2.1043                 7.5000
 Frc consts  --      0.2294                 0.5695                 2.2719
 IR Inten    --     77.9315                11.1197                 8.8865

                      4                      5                      6
                     A"                     A'                     A'
 Frequencies --    838.4479               964.2759              1014.8237
 Red. masses --      1.2613                 6.4620                 7.5279
 Frc consts  --      0.5224                 3.5402                 4.5678
 IR Inten    --     27.3185                 3.7816                 0.2210

                      7                      8                      9
                     A'                     A'                     A'
 Frequencies --   1050.2485              1077.4368              1166.2823
 Red. masses --      4.9142                 3.3720                 1.8440
 Frc consts  --      3.1936                 2.3063                 1.4778
 IR Inten    --     21.4342                24.7677                16.9462

                     10                     11                     12
                     A'                     A'                     A'
 Frequencies --   1295.3131              1333.2176              1490.2922
 Red. masses --      2.3329                 9.2827                 2.9340
 Frc consts  --      2.3062                 9.7213                 3.8393
 IR Inten    --      0.8105                19.7888                13.6225

                     13                     14                     15
                     A'                     A'                     A'
 Frequencies --   1544.3723              3332.4166              3711.6321
 Red. masses --      3.2505                 1.1017                 1.0839
 Frc consts  --      4.5678                 7.2081                 8.7979
 IR Inten    --     21.0677                 1.2559               110.1557

 - Thermochemistry -
 -------------------
 Temperature   298.150 Kelvin.  Pressure   1.00000 Atm.
 Atom     1 has atomic number  6 and mass  12.00000

 Molecular mass:    70.02795 amu.
 Principal axes and moments of inertia in atomic units:
                           1         2         3
     Eigenvalues --   170.98341 174.41561 345.39902
           X            0.90086   0.43412   0.00000
           Y           -0.43412   0.90086   0.00000
           Z            0.00000   0.00000   1.00000
 This molecule is an asymmetric top.
 Rotational symmetry number  1.
 Rotational temperatures (Kelvin)      0.50656     0.49659     0.25076
 Rotational constants (GHZ):          10.55507    10.34736     5.22509
 Zero-point vibrational energy     123615.4 (Joules/Mol)
                                   29.54479 (Kcal/Mol)
 Warning -- explicit consideration of   1 degrees of freedom as
           vibrations may cause significant error
 Vibrational temperatures:    652.26   975.12  1031.65  1206.34  1387.38
          (Kelvin)           1460.10  1511.07  1550.19  1678.02  1863.66
                             1918.20  2144.20  2222.00  4794.60  5340.20

 Zero-point correction=                           0.047083 (Hartree/Particle)
 Thermal correction to Energy=                    0.050656
 Thermal correction to Enthalpy=                  0.051600
 Thermal correction to Gibbs Free Energy=         0.020931
 Sum of electronic and zero-point Energies=           -257.618486
 Sum of electronic and thermal Energies=              -257.614912
 Sum of electronic and thermal Enthalpies=            -257.613968
 Sum of electronic and thermal Free Energies=         -257.644638

                     E (Thermal)             CV                S
                      KCal/Mol        Cal/Mol-Kelvin    Cal/Mol-Kelvin
 Total                   31.787             11.631             64.549
 Electronic               0.000              0.000              0.000
 Translational            0.889              2.981             38.656
 Rotational               0.889              2.981             23.847
 Vibrational             30.010              5.669              2.046
 Vibration     1          0.812              1.353              0.786

 Optimization completed.
    -- Stationary point found.
 Normal termination of Gaussian 09 at Thu Nov 28 03:39:48 2013.
