 Gaussian 09, Revision D.01,
 Gaussian 09:  EM64L-G09RevD.01 24-Apr-2013

 ----------------------------------------
 #QCISD/6-31G** opt=z-matrix freq density
 ----------------------------------------

 -----------------------------------------------------------------
 1H-tetrazole CH2N4 casno=288948 state=1 config=1 method=5 basis=3
 -----------------------------------------------------------------
 Symbolic Z-matrix:
 Charge =  0 Multiplicity = 1

 SCF Done:  E(RHF) =  -256.760119309     A.U. after   15 cycles
 E2 =    -0.7847682184D+00 EUMP2 =    -0.25754488752766D+03
 SCF Done:  E(RHF) =  -256.755450317     A.U. after   12 cycles
 E2 =    -0.7960284346D+00 EUMP2 =    -0.25755147875172D+03
 SCF Done:  E(RHF) =  -256.754746323     A.U. after   11 cycles
 E2 =    -0.7969614342D+00 EUMP2 =    -0.25755170775744D+03
 SCF Done:  E(RHF) =  -256.754928954     A.U. after   12 cycles
 E2 =    -0.7966108370D+00 EUMP2 =    -0.25755153979133D+03
 SCF Done:  E(RHF) =  -256.754567958     A.U. after   10 cycles
 E2 =    -0.7972002947D+00 EUMP2 =    -0.25755176825245D+03
 SCF Done:  E(RHF) =  -256.754876060     A.U. after   11 cycles
 E2 =    -0.7968437479D+00 EUMP2 =    -0.25755171980798D+03
 SCF Done:  E(RHF) =  -256.754596884     A.U. after    9 cycles
 E2 =    -0.7971809286D+00 EUMP2 =    -0.25755177781240D+03
 SCF Done:  E(RHF) =  -256.754733794     A.U. after   11 cycles
 E2 =    -0.7969804687D+00 EUMP2 =    -0.25755171426285D+03
 SCF Done:  E(RHF) =  -256.754634225     A.U. after    8 cycles
 E2 =    -0.7971398658D+00 EUMP2 =    -0.25755177409102D+03
 SCF Done:  E(RHF) =  -256.754698197     A.U. after   10 cycles
 E2 =    -0.7971142702D+00 EUMP2 =    -0.25755181246772D+03
 E2 =    -0.7971468140D+00 EUMP2 =    -0.25755177882928D+03
 E2 =    -0.7971146861D+00 EUMP2 =    -0.25755177010962D+03
 E2 =    -0.7971381684D+00 EUMP2 =    -0.25755177650829D+03
 E2 =    -0.7971395973D+00 EUMP2 =    -0.25755178239027D+03
 E2 =    -0.7971359456D+00 EUMP2 =    -0.25755177899311D+03
 E2 =    -0.7971303569D+00 EUMP2 =    -0.25755177636496D+03
 E2 =    -0.7971344639D+00 EUMP2 =    -0.25755177924616D+03
 E2 =    -0.7971214471D+00 EUMP2 =    -0.25755177852214D+03
 E2 =    -0.7971344260D+00 EUMP2 =    -0.25755177924402D+03
 Optimization completed.
    -- Stationary point found.
 Normal termination of Gaussian 09 at Thu Nov 28 04:11:31 2013.

 ----------------------------------------------------------------------
 #N Geom=AllCheck Guess=TCheck SCRF=Check GenChk RQCISD(FC)/6-31G(d,p)
 Freq
 ----------------------------------------------------------------------

 Structure from the checkpoint file:  "/tmp/rdj3/g09-23219/Gau-29967.chk"
 -----------------------------------------------------------------
 1H-tetrazole CH2N4 casno=288948 state=1 config=1 method=5 basis=3
 -----------------------------------------------------------------
 Charge =  0 Multiplicity = 1

                         Standard orientation:
 ---------------------------------------------------------------------
 Center     Atomic      Atomic             Coordinates (Angstroms)
 Number     Number       Type             X           Y           Z
 ---------------------------------------------------------------------
      1          6           0        1.068412    0.236038    0.000000
      2          7           0        0.000000    1.057494    0.000000
      3          7           0       -1.123927    0.301370    0.000000
      4          7           0       -0.726268   -0.927487    0.000000
      5          7           0        0.643983   -1.008775    0.000000
      6          1           0        2.092101    0.564312    0.000000
      7          1           0       -0.059088    2.061241    0.000000
 ---------------------------------------------------------------------

 E2 =    -0.7971344198D+00 EUMP2 =    -0.25755177923782D+03
 E2 =    -0.7971233913D+00 EUMP2 =    -0.25755179303169D+03
 E2 =    -0.7971455477D+00 EUMP2 =    -0.25755176390745D+03
 E2 =    -0.7969986163D+00 EUMP2 =    -0.25755173736501D+03
 E2 =    -0.7972703903D+00 EUMP2 =    -0.25755181893708D+03
 E2 =    -0.7971345049D+00 EUMP2 =    -0.25755177902392D+03
 E2 =    -0.7971668254D+00 EUMP2 =    -0.25755177067842D+03
 E2 =    -0.7971020813D+00 EUMP2 =    -0.25755178637199D+03
 E2 =    -0.7970503588D+00 EUMP2 =    -0.25755176225403D+03
 E2 =    -0.7972185991D+00 EUMP2 =    -0.25755179393819D+03
 E2 =    -0.7971344843D+00 EUMP2 =    -0.25755177904417D+03
 SCF Done:  E(RHF) =  -256.754634639     A.U. after    7 cycles
 E2 =    -0.7971438365D+00 EUMP2 =    -0.25755177847499D+03
 SCF Done:  E(RHF) =  -256.754653658     A.U. after    8 cycles
 E2 =    -0.7971250197D+00 EUMP2 =    -0.25755177867812D+03
 SCF Done:  E(RHF) =  -256.754640982     A.U. after    8 cycles
 E2 =    -0.7971385066D+00 EUMP2 =    -0.25755177948847D+03
 SCF Done:  E(RHF) =  -256.754648317     A.U. after    8 cycles
 E2 =    -0.7971303549D+00 EUMP2 =    -0.25755177867202D+03
 SCF Done:  E(RHF) =  -256.754644760     A.U. after    7 cycles
 E2 =    -0.7971344308D+00 EUMP2 =    -0.25755177919094D+03
 SCF Done:  E(RHF) =  -256.754646474     A.U. after    7 cycles
 E2 =    -0.7971316873D+00 EUMP2 =    -0.25755177816135D+03
 SCF Done:  E(RHF) =  -256.754642889     A.U. after    8 cycles
 E2 =    -0.7971371992D+00 EUMP2 =    -0.25755178008788D+03
 SCF Done:  E(RHF) =  -256.754620814     A.U. after    7 cycles
 E2 =    -0.7971625161D+00 EUMP2 =    -0.25755178332979D+03
 SCF Done:  E(RHF) =  -256.754667018     A.U. after    8 cycles
 E2 =    -0.7971063267D+00 EUMP2 =    -0.25755177334493D+03
 SCF Done:  E(RHF) =  -256.754644782     A.U. after    6 cycles
 E2 =    -0.7971344248D+00 EUMP2 =    -0.25755177920651D+03

 Alpha  occ. eigenvalues --  -15.68837 -15.67052 -15.65256 -15.60934 -11.34288
 Alpha  occ. eigenvalues --   -1.48985  -1.25244  -1.19532  -0.90560  -0.88693
 Alpha  occ. eigenvalues --   -0.79839  -0.67464  -0.67200  -0.56720  -0.47626
 Alpha  occ. eigenvalues --   -0.47188  -0.45214  -0.41798
 Alpha virt. eigenvalues --    0.13766   0.18693   0.19830   0.25174   0.36656
 Alpha virt. eigenvalues --    0.37567   0.47380   0.49890   0.64296   0.73089
 Alpha virt. eigenvalues --    0.73954   0.82279   0.82446   0.89292   0.90920

 Mulliken charges:
               1
     1  C    0.298730
     2  N   -0.391983
     3  N   -0.033450
     4  N   -0.075145
     5  N   -0.307971
     6  H    0.182371
     7  H    0.327447
 Sum of Mulliken charges =   0.00000

 Dipole moment (field-independent basis, Debye):
    X=              2.4942    Y=              4.7925    Z=              0.0017  Tot=              5.4027
 Quadrupole moment (field-independent basis, Debye-Ang):
   XX=            -29.0320   YY=            -26.5954   ZZ=            -28.5158
   XY=              1.9045   XZ=             -0.0001   YZ=              0.0039

                      1                      2                      3
                     A"                     A"                     A"
 Frequencies --    563.5864               692.2720               737.2116
 Red. masses --      1.8260                 2.0433                 7.4796
 Frc consts  --      0.3417                 0.5769                 2.3950
 IR Inten    --     96.7097                10.4225                10.5407

                      4                      5                      6
                     A"                     A'                     A'
 Frequencies --    876.8527               980.9189              1020.0078
 Red. masses --      1.3174                 5.5848                 6.8149
 Frc consts  --      0.5968                 3.1661                 4.1775
 IR Inten    --     17.2358                 2.2771                 0.3902

                      7                      8                      9
                     A'                     A'                     A'
 Frequencies --   1072.0732              1088.3980              1174.9115
 Red. masses --      5.8399                 3.2187                 1.7776
 Frc consts  --      3.9546                 2.2465                 1.4458
 IR Inten    --     17.3748                28.5552                14.5358

                     10                     11                     12
                     A'                     A'                     A'
 Frequencies --   1304.0760              1346.2621              1512.3417
 Red. masses --      2.4506                 9.5430                 2.9561
 Frc consts  --      2.4555                10.1905                 3.9835
 IR Inten    --      0.4966                18.0570                14.5764

                     13                     14                     15
                     A'                     A'                     A'
 Frequencies --   1557.0527              3367.7864              3760.6875
 Red. masses --      3.4114                 1.1012                 1.0837
 Frc consts  --      4.8729                 7.3590                 9.0301
 IR Inten    --     20.9985                 0.6245               107.1014

 - Thermochemistry -
 -------------------
 Temperature   298.150 Kelvin.  Pressure   1.00000 Atm.
 Atom     1 has atomic number  6 and mass  12.00000

 Molecular mass:    70.02795 amu.
 Principal axes and moments of inertia in atomic units:
                           1         2         3
     Eigenvalues --   172.11361 175.48746 347.60107
           X            0.88496   0.46566   0.00000
           Y           -0.46566   0.88496   0.00000
           Z            0.00000   0.00000   1.00000
 This molecule is an asymmetric top.
 Rotational symmetry number  1.
 Rotational temperatures (Kelvin)      0.50324     0.49356     0.24918
 Rotational constants (GHZ):          10.48576    10.28416     5.19199
 Zero-point vibrational energy     125933.5 (Joules/Mol)
                                   30.09883 (Kcal/Mol)
 Warning -- explicit consideration of   1 degrees of freedom as
           vibrations may cause significant error
 Vibrational temperatures:    810.87   996.02  1060.68  1261.59  1411.32
          (Kelvin)           1467.56  1542.47  1565.96  1690.43  1876.27
                             1936.97  2175.92  2240.25  4845.49  5410.78

 Zero-point correction=                           0.047966 (Hartree/Particle)
 Thermal correction to Energy=                    0.051428
 Thermal correction to Enthalpy=                  0.052372
 Thermal correction to Gibbs Free Energy=         0.021863
 Sum of electronic and zero-point Energies=           -257.512464
 Sum of electronic and thermal Energies=              -257.509002
 Sum of electronic and thermal Enthalpies=            -257.508058
 Sum of electronic and thermal Free Energies=         -257.538567

                     E (Thermal)             CV                S
                      KCal/Mol        Cal/Mol-Kelvin    Cal/Mol-Kelvin
 Total                   32.271             11.185             64.211
 Electronic               0.000              0.000              0.000
 Translational            0.889              2.981             38.656
 Rotational               0.889              2.981             23.866
 Vibrational             30.494              5.223              1.688
 Vibration     1          0.919              1.110              0.517

 Optimization completed.
    -- Stationary point found.
 Normal termination of Gaussian 09 at Thu Nov 28 05:32:09 2013.
