 Gaussian 09, Revision D.01,
 Gaussian 09:  EM64L-G09RevD.01 24-Apr-2013

 --------------------------------
 #QCISD/6-31+G** opt freq density
 --------------------------------

 -----------------------------------------------------------------
 1H-tetrazole CH2N4 casno=288948 state=1 config=1 method=5 basis=4
 -----------------------------------------------------------------
 Symbolic Z-matrix:
 Charge =  0 Multiplicity = 1

 SCF Done:  E(RHF) =  -256.767607422     A.U. after   15 cycles
 E2 =    -0.7933570730D+00 EUMP2 =    -0.25756096449458D+03
 SCF Done:  E(RHF) =  -256.762792947     A.U. after   13 cycles
 E2 =    -0.8051243693D+00 EUMP2 =    -0.25756791731636D+03
 SCF Done:  E(RHF) =  -256.761914045     A.U. after   12 cycles
 E2 =    -0.8062891752D+00 EUMP2 =    -0.25756820322000D+03
 SCF Done:  E(RHF) =  -256.761754601     A.U. after   11 cycles
 E2 =    -0.8065316352D+00 EUMP2 =    -0.25756828623597D+03
 SCF Done:  E(RHF) =  -256.761926894     A.U. after   10 cycles
 E2 =    -0.8063271214D+00 EUMP2 =    -0.25756825401542D+03
 Optimization completed.
    -- Stationary point found.
 Normal termination of Gaussian 09 at Tue Dec 17 06:46:48 2013.

 ----------------------------------------------------------------------
 #N Geom=AllCheck Guess=TCheck SCRF=Check GenChk RQCISD(FC)/6-31+G(d,p)
  Freq
 ----------------------------------------------------------------------

 Structure from the checkpoint file:  "/tmp/rdj3/g09-18029/Gau-5724.chk"
 -----------------------------------------------------------------
 1H-tetrazole CH2N4 casno=288948 state=1 config=1 method=5 basis=4
 -----------------------------------------------------------------
 Charge =  0 Multiplicity = 1

                         Standard orientation:
 ---------------------------------------------------------------------
 Center     Atomic      Atomic             Coordinates (Angstroms)
 Number     Number       Type             X           Y           Z
 ---------------------------------------------------------------------
      1          6           0        1.069398    0.236907    0.000000
      2          7           0        0.000000    1.058631    0.000000
      3          7           0       -1.123867    0.301082    0.000000
      4          7           0       -0.726965   -0.928766    0.000000
      5          7           0        0.643722   -1.009189    0.000000
      6          1           0        2.094016    0.562906    0.000000
      7          1           0       -0.060632    2.063349    0.000000
 ---------------------------------------------------------------------

 SCF Done:  E(RHF) =  -256.761926894     A.U. after    1 cycles
 E2 =    -0.8063271206D+00 EUMP2 =    -0.25756825401471D+03
 SCF Done:  E(RHF) =  -256.761878023     A.U. after    9 cycles
 E2 =    -0.8063849486D+00 EUMP2 =    -0.25756826297153D+03
 SCF Done:  E(RHF) =  -256.761972223     A.U. after   10 cycles
 E2 =    -0.8062695143D+00 EUMP2 =    -0.25756824173709D+03
 SCF Done:  E(RHF) =  -256.761894576     A.U. after   10 cycles
 E2 =    -0.8063743774D+00 EUMP2 =    -0.25756826895373D+03
 SCF Done:  E(RHF) =  -256.761956701     A.U. after   11 cycles
 E2 =    -0.8062798689D+00 EUMP2 =    -0.25756823656962D+03
 E2 =    -0.8063272555D+00 EUMP2 =    -0.25756825380400D+03
 E2 =    -0.8063372620D+00 EUMP2 =    -0.25756825004986D+03
 E2 =    -0.8063170640D+00 EUMP2 =    -0.25756825583928D+03
 E2 =    -0.8063555444D+00 EUMP2 =    -0.25756824447355D+03
 E2 =    -0.8062988942D+00 EUMP2 =    -0.25756825983245D+03
 E2 =    -0.8063271955D+00 EUMP2 =    -0.25756825387403D+03
 E2 =    -0.8062321843D+00 EUMP2 =    -0.25756824001399D+03
 E2 =    -0.8064222592D+00 EUMP2 =    -0.25756826612849D+03
 E2 =    -0.8064416934D+00 EUMP2 =    -0.25756829695289D+03
 E2 =    -0.8062126155D+00 EUMP2 =    -0.25756820921852D+03
 E2 =    -0.8063143485D+00 EUMP2 =    -0.25756826757151D+03
 E2 =    -0.8063400096D+00 EUMP2 =    -0.25756823895750D+03
 E2 =    -0.8061890859D+00 EUMP2 =    -0.25756821124758D+03
 E2 =    -0.8064653341D+00 EUMP2 =    -0.25756829464309D+03
 E2 =    -0.8063272203D+00 EUMP2 =    -0.25756825381827D+03
 E2 =    -0.8063601981D+00 EUMP2 =    -0.25756824532725D+03
 E2 =    -0.8062941305D+00 EUMP2 =    -0.25756826130874D+03
 E2 =    -0.8062419428D+00 EUMP2 =    -0.25756823649733D+03
 E2 =    -0.8064124143D+00 EUMP2 =    -0.25756826927028D+03
 E2 =    -0.8063271973D+00 EUMP2 =    -0.25756825383559D+03
 SCF Done:  E(RHF) =  -256.761916316     A.U. after    7 cycles
 E2 =    -0.8063370806D+00 EUMP2 =    -0.25756825339656D+03
 SCF Done:  E(RHF) =  -256.761936133     A.U. after    8 cycles
 E2 =    -0.8063171889D+00 EUMP2 =    -0.25756825332166D+03
 SCF Done:  E(RHF) =  -256.761923119     A.U. after    8 cycles
 E2 =    -0.8063310854D+00 EUMP2 =    -0.25756825420468D+03
 SCF Done:  E(RHF) =  -256.761930334     A.U. after    9 cycles
 E2 =    -0.8063231790D+00 EUMP2 =    -0.25756825351276D+03
 SCF Done:  E(RHF) =  -256.761926837     A.U. after    7 cycles
 E2 =    -0.8063271373D+00 EUMP2 =    -0.25756825397386D+03
 SCF Done:  E(RHF) =  -256.761928666     A.U. after    8 cycles
 E2 =    -0.8063242035D+00 EUMP2 =    -0.25756825286949D+03
 SCF Done:  E(RHF) =  -256.761924849     A.U. after    8 cycles
 E2 =    -0.8063300939D+00 EUMP2 =    -0.25756825494242D+03
 SCF Done:  E(RHF) =  -256.761902067     A.U. after    7 cycles
 E2 =    -0.8063564250D+00 EUMP2 =    -0.25756825849225D+03
 SCF Done:  E(RHF) =  -256.761949928     A.U. after    9 cycles
 E2 =    -0.8062978401D+00 EUMP2 =    -0.25756824776770D+03
 SCF Done:  E(RHF) =  -256.761926857     A.U. after    6 cycles
 E2 =    -0.8063271332D+00 EUMP2 =    -0.25756825399065D+03

 Alpha  occ. eigenvalues --  -15.69617 -15.67957 -15.66219 -15.61925 -11.34985
 Alpha  occ. eigenvalues --   -1.49762  -1.25991  -1.20258  -0.91267  -0.89393
 Alpha  occ. eigenvalues --   -0.80460  -0.68140  -0.67785  -0.57355  -0.48276
 Alpha  occ. eigenvalues --   -0.47892  -0.45854  -0.42418
 Alpha virt. eigenvalues --    0.05162   0.08221   0.08730   0.10069   0.12838
 Alpha virt. eigenvalues --    0.14752   0.16220   0.17374   0.18914   0.20667
 Alpha virt. eigenvalues --    0.22230   0.23538   0.24613   0.27333   0.28943

 Mulliken charges:
               1
     1  C    0.083324
     2  N   -0.336635
     3  N   -0.003235
     4  N   -0.009815
     5  N   -0.278811
     6  H    0.193158
     7  H    0.352014
 Sum of Mulliken charges =   0.00000

 Dipole moment (field-independent basis, Debye):
    X=              2.6183    Y=              4.9428    Z=              0.0017  Tot=              5.5935
 Quadrupole moment (field-independent basis, Debye-Ang):
   XX=            -29.8722   YY=            -27.4318   ZZ=            -29.2963
   XY=              2.0628   XZ=             -0.0001   YZ=              0.0040

                      1                      2                      3
                     A"                     A"                     A"
 Frequencies --    529.4433               680.8281               720.2933
 Red. masses --      1.8744                 2.0529                 7.5881
 Frc consts  --      0.3096                 0.5607                 2.3195
 IR Inten    --     89.4156                11.5087                10.0150

                      4                      5                      6
                     A"                     A'                     A'
 Frequencies --    860.6989               975.2754              1016.1135
 Red. masses --      1.2863                 5.6928                 7.2167
 Frc consts  --      0.5614                 3.1903                 4.3901
 IR Inten    --     24.6185                 2.4367                 0.0816

                      7                      8                      9
                     A'                     A'                     A'
 Frequencies --   1066.9199              1084.6978              1169.0690
 Red. masses --      5.8303                 3.2670                 1.7610
 Frc consts  --      3.9102                 2.2647                 1.4181
 IR Inten    --     21.0746                26.7535                15.1668

                     10                     11                     12
                     A'                     A'                     A'
 Frequencies --   1298.9230              1339.4447              1503.8200
 Red. masses --      2.4309                 9.5691                 2.9746
 Frc consts  --      2.4164                10.1152                 3.9634
 IR Inten    --      0.4376                19.5654                14.5080

                     13                     14                     15
                     A'                     A'                     A'
 Frequencies --   1549.2829              3366.0884              3748.7824
 Red. masses --      3.2977                 1.1015                 1.0840
 Frc consts  --      4.6637                 7.3533                 8.9758
 IR Inten    --     21.8865                 1.4902               114.5432

 - Thermochemistry -
 -------------------
 Temperature   298.150 Kelvin.  Pressure   1.00000 Atm.
 Atom     1 has atomic number  6 and mass  12.00000

 Molecular mass:    70.02795 amu.
 Principal axes and moments of inertia in atomic units:
                           1         2         3
     Eigenvalues --   172.49678 175.56639 348.06317
           X            0.88534   0.46495   0.00000
           Y           -0.46495   0.88534   0.00000
           Z            0.00000   0.00000   1.00000
 This molecule is an asymmetric top.
 Rotational symmetry number  1.
 Rotational temperatures (Kelvin)      0.50212     0.49334     0.24885
 Rotational constants (GHZ):          10.46246    10.27954     5.18510
 Zero-point vibrational energy     125067.7 (Joules/Mol)
                                   29.89189 (Kcal/Mol)
 Warning -- explicit consideration of   1 degrees of freedom as
           vibrations may cause significant error
 Vibrational temperatures:    761.75   979.56  1036.34  1238.35  1403.20
          (Kelvin)           1461.96  1535.06  1560.64  1682.03  1868.86
                             1927.16  2163.66  2229.07  4843.04  5393.66

 Zero-point correction=                           0.047636 (Hartree/Particle)
 Thermal correction to Energy=                    0.051138
 Thermal correction to Enthalpy=                  0.052082
 Thermal correction to Gibbs Free Energy=         0.021513
 Sum of electronic and zero-point Energies=           -257.527941
 Sum of electronic and thermal Energies=              -257.524438
 Sum of electronic and thermal Enthalpies=            -257.523494
 Sum of electronic and thermal Free Energies=         -257.554063

                     E (Thermal)             CV                S
                      KCal/Mol        Cal/Mol-Kelvin    Cal/Mol-Kelvin
 Total                   32.090             11.369             64.338
 Electronic               0.000              0.000              0.000
 Translational            0.889              2.981             38.656
 Rotational               0.889              2.981             23.870
 Vibrational             30.312              5.407              1.812
 Vibration     1          0.884              1.185              0.588

 Optimization completed.
    -- Stationary point found.
 Normal termination of Gaussian 09 at Tue Dec 17 09:10:41 2013.
