 Gaussian 09, Revision D.01,
 Gaussian 09:  EM64L-G09RevD.01 24-Apr-2013

 ----------------------------------------
 #QCISD/cc-pVDZ opt=z-matrix freq density
 ----------------------------------------

 -----------------------------------------------------------------
 1H-tetrazole CH2N4 casno=288948 state=1 config=1 method=5 basis=5
 -----------------------------------------------------------------
 Symbolic Z-matrix:
 Charge =  0 Multiplicity = 1

 SCF Done:  E(RHF) =  -256.780056734     A.U. after   15 cycles
 E2 =    -0.7749059228D+00 EUMP2 =    -0.25755496265635D+03
 SCF Done:  E(RHF) =  -256.774839361     A.U. after   13 cycles
 E2 =    -0.7875943965D+00 EUMP2 =    -0.25756243375720D+03
 SCF Done:  E(RHF) =  -256.774352200     A.U. after   11 cycles
 E2 =    -0.7882536017D+00 EUMP2 =    -0.25756260580172D+03
 SCF Done:  E(RHF) =  -256.774934798     A.U. after   13 cycles
 E2 =    -0.7872764155D+00 EUMP2 =    -0.25756221121359D+03
 SCF Done:  E(RHF) =  -256.774058250     A.U. after   11 cycles
 E2 =    -0.7886295992D+00 EUMP2 =    -0.25756268784904D+03
 SCF Done:  E(RHF) =  -256.774417371     A.U. after   11 cycles
 E2 =    -0.7882049256D+00 EUMP2 =    -0.25756262229638D+03
 SCF Done:  E(RHF) =  -256.773937070     A.U. after   12 cycles
 E2 =    -0.7887131137D+00 EUMP2 =    -0.25756265018347D+03
 SCF Done:  E(RHF) =  -256.762443508     A.U. after   14 cycles
 E2 =    -0.7948004212D+00 EUMP2 =    -0.25755724392887D+03
 SCF Done:  E(RHF) =  -256.773632785     A.U. after   14 cycles
 E2 =    -0.7866022460D+00 EUMP2 =    -0.25756023503143D+03
 SCF Done:  E(RHF) =  -256.765857936     A.U. after   14 cycles
 E2 =    -0.7940950783D+00 EUMP2 =    -0.25755995301413D+03
 E2 =    -0.7886517615D+00 EUMP2 =    -0.25756269843602D+03
 E2 =    -0.7877411217D+00 EUMP2 =    -0.25756228678010D+03
 E2 =    -0.7886189433D+00 EUMP2 =    -0.25756271553531D+03
 E2 =    -0.7885720599D+00 EUMP2 =    -0.25756271107492D+03
 E2 =    -0.7885845531D+00 EUMP2 =    -0.25756272051032D+03
 Optimization completed.
    -- Stationary point found.
 Normal termination of Gaussian 09 at Thu Nov 28 07:05:12 2013.

 ----------------------------------------------------------------------
 #N Geom=AllCheck Guess=TCheck SCRF=Check GenChk RQCISD(FC)/CC-pVDZ Fre
 q
 ----------------------------------------------------------------------

 Structure from the checkpoint file:  "/tmp/rdj3/g09-23219/Gau-7405.chk"
 -----------------------------------------------------------------
 1H-tetrazole CH2N4 casno=288948 state=1 config=1 method=5 basis=5
 -----------------------------------------------------------------
 Charge =  0 Multiplicity = 1

                         Standard orientation:
 ---------------------------------------------------------------------
 Center     Atomic      Atomic             Coordinates (Angstroms)
 Number     Number       Type             X           Y           Z
 ---------------------------------------------------------------------
      1          6           0        1.070425    0.232121    0.000000
      2          7           0        0.000000    1.059850    0.000000
      3          7           0       -1.122125    0.304630    0.000000
      4          7           0       -0.728960   -0.924850    0.000000
      5          7           0        0.640645   -1.014978    0.000000
      6          1           0        2.107547    0.562805    0.000000
      7          1           0       -0.057014    2.071909    0.000000
 ---------------------------------------------------------------------

 E2 =    -0.7885845427D+00 EUMP2 =    -0.25756272049992D+03
 E2 =    -0.7886391838D+00 EUMP2 =    -0.25756272982649D+03
 E2 =    -0.7885300682D+00 EUMP2 =    -0.25756270787151D+03
 E2 =    -0.7886307406D+00 EUMP2 =    -0.25756273540090D+03
 E2 =    -0.7885383058D+00 EUMP2 =    -0.25756270306224D+03
 E2 =    -0.7885733919D+00 EUMP2 =    -0.25756273452883D+03
 E2 =    -0.7885957521D+00 EUMP2 =    -0.25756270489630D+03
 E2 =    -0.7884489907D+00 EUMP2 =    -0.25756267885227D+03
 E2 =    -0.7887202321D+00 EUMP2 =    -0.25756275994354D+03
 E2 =    -0.7885846160D+00 EUMP2 =    -0.25756272027307D+03
 E2 =    -0.7886146487D+00 EUMP2 =    -0.25756271140495D+03
 E2 =    -0.7885544817D+00 EUMP2 =    -0.25756272816997D+03
 E2 =    -0.7884925602D+00 EUMP2 =    -0.25756270282296D+03
 E2 =    -0.7886765995D+00 EUMP2 =    -0.25756273587704D+03
 E2 =    -0.7885845963D+00 EUMP2 =    -0.25756272029415D+03
 SCF Done:  E(RHF) =  -256.774117349     A.U. after    7 cycles
 E2 =    -0.7886010735D+00 EUMP2 =    -0.25756271842203D+03
 SCF Done:  E(RHF) =  -256.774153278     A.U. after    7 cycles
 E2 =    -0.7885680025D+00 EUMP2 =    -0.25756272128074D+03
 SCF Done:  E(RHF) =  -256.774129389     A.U. after    7 cycles
 E2 =    -0.7885909621D+00 EUMP2 =    -0.25756272035079D+03
 SCF Done:  E(RHF) =  -256.774142198     A.U. after    8 cycles
 E2 =    -0.7885781210D+00 EUMP2 =    -0.25756272031911D+03
 SCF Done:  E(RHF) =  -256.774135897     A.U. after    6 cycles
 E2 =    -0.7885845456D+00 EUMP2 =    -0.25756272044275D+03
 SCF Done:  E(RHF) =  -256.774138009     A.U. after    6 cycles
 E2 =    -0.7885815150D+00 EUMP2 =    -0.25756271952411D+03
 SCF Done:  E(RHF) =  -256.774133639     A.U. after    8 cycles
 E2 =    -0.7885876017D+00 EUMP2 =    -0.25756272124056D+03
 SCF Done:  E(RHF) =  -256.774106503     A.U. after    7 cycles
 E2 =    -0.7886172941D+00 EUMP2 =    -0.25756272379690D+03
 SCF Done:  E(RHF) =  -256.774163673     A.U. after    8 cycles
 E2 =    -0.7885517723D+00 EUMP2 =    -0.25756271544497D+03
 SCF Done:  E(RHF) =  -256.774135920     A.U. after    6 cycles
 E2 =    -0.7885845397D+00 EUMP2 =    -0.25756272045989D+03

 Alpha  occ. eigenvalues --  -15.68345 -15.66355 -15.64568 -15.60550 -11.34511
 Alpha  occ. eigenvalues --   -1.48843  -1.25079  -1.19273  -0.90173  -0.88429
 Alpha  occ. eigenvalues --   -0.79296  -0.67038  -0.67010  -0.56474  -0.47474
 Alpha  occ. eigenvalues --   -0.46989  -0.45043  -0.41556
 Alpha virt. eigenvalues --    0.13817   0.15604   0.18665   0.19583   0.34607
 Alpha virt. eigenvalues --    0.37445   0.42828   0.48419   0.59641   0.66424
 Alpha virt. eigenvalues --    0.66494   0.75590   0.79532   0.82754   0.87092

 Mulliken charges:
               1
     1  C    0.215230
     2  N   -0.100624
     3  N   -0.053817
     4  N   -0.079425
     5  N   -0.203516
     6  H    0.078409
     7  H    0.143743
 Sum of Mulliken charges =   0.00000

 Dipole moment (field-independent basis, Debye):
    X=              2.3954    Y=              4.6888    Z=              0.0016  Tot=              5.2653
 Quadrupole moment (field-independent basis, Debye-Ang):
   XX=            -29.0670   YY=            -26.5883   ZZ=            -28.4082
   XY=              1.8268   XZ=             -0.0001   YZ=              0.0037

                      1                      2                      3
                     A"                     A"                     A"
 Frequencies --    546.3904               690.3479               740.2555
 Red. masses --      1.6945                 2.1433                 7.8324
 Frc consts  --      0.2980                 0.6018                 2.5287
 IR Inten    --     85.3208                 5.8471                 8.8912

                      4                      5                      6
                     A"                     A'                     A'
 Frequencies --    877.9582               974.1024              1015.7236
 Red. masses --      1.3445                 4.7089                 6.4545
 Frc consts  --      0.6106                 2.6326                 3.9234
 IR Inten    --     17.1564                 2.2171                 0.7229

                      7                      8                      9
                     A'                     A'                     A'
 Frequencies --   1066.8661              1080.2444              1154.3796
 Red. masses --      4.7818                 2.7562                 1.9788
 Frc consts  --      3.2067                 1.8950                 1.5537
 IR Inten    --     19.5111                27.6030                14.4727

                     10                     11                     12
                     A'                     A'                     A'
 Frequencies --   1284.4198              1345.6309              1493.8124
 Red. masses --      2.5663                 9.5365                 3.0316
 Frc consts  --      2.4944                10.1740                 3.9858
 IR Inten    --      0.3542                17.1341                13.1168

                     13                     14                     15
                     A'                     A'                     A'
 Frequencies --   1540.3932              3323.1421              3695.8523
 Red. masses --      4.0608                 1.1020                 1.0847
 Frc consts  --      5.6771                 7.1703                 8.7295
 IR Inten    --     16.0996                 1.0562               108.4556

 - Thermochemistry -
 -------------------
 Temperature   298.150 Kelvin.  Pressure   1.00000 Atm.
 Atom     1 has atomic number  6 and mass  12.00000

 Molecular mass:    70.02795 amu.
 Principal axes and moments of inertia in atomic units:
                           1         2         3
     Eigenvalues --   172.49979 176.09730 348.59709
           X            0.82504   0.56508   0.00000
           Y           -0.56508   0.82504   0.00000
           Z            0.00000   0.00000   1.00000
 This molecule is an asymmetric top.
 Rotational symmetry number  1.
 Rotational temperatures (Kelvin)      0.50211     0.49185     0.24846
 Rotational constants (GHZ):          10.46228    10.24855     5.17716
 Zero-point vibrational energy     124588.2 (Joules/Mol)
                                   29.77729 (Kcal/Mol)
 Warning -- explicit consideration of   1 degrees of freedom as
           vibrations may cause significant error
 Vibrational temperatures:    786.13   993.26  1065.06  1263.18  1401.51
          (Kelvin)           1461.40  1534.98  1554.23  1660.89  1847.99
                             1936.06  2149.26  2216.28  4781.25  5317.50

 Zero-point correction=                           0.047453 (Hartree/Particle)
 Thermal correction to Energy=                    0.050932
 Thermal correction to Enthalpy=                  0.051876
 Thermal correction to Gibbs Free Energy=         0.021340
 Sum of electronic and zero-point Energies=           -257.525164
 Sum of electronic and thermal Energies=              -257.521686
 Sum of electronic and thermal Enthalpies=            -257.520742
 Sum of electronic and thermal Free Energies=         -257.551278

                     E (Thermal)             CV                S
                      KCal/Mol        Cal/Mol-Kelvin    Cal/Mol-Kelvin
 Total                   31.960             11.277             64.269
 Electronic               0.000              0.000              0.000
 Translational            0.889              2.981             38.656
 Rotational               0.889              2.981             23.875
 Vibrational             30.183              5.315              1.738
 Vibration     1          0.902              1.148              0.552

 Optimization completed.
    -- Stationary point found.
 Normal termination of Gaussian 09 at Thu Nov 28 08:12:59 2013.
