 Gaussian 09, Revision D.01,
 Gaussian 09:  EM64L-G09RevD.01 24-Apr-2013

 ----------------------------------------
 #QCISD/cc-pVTZ opt=z-matrix freq density
 ----------------------------------------

 -----------------------------------------------------------------
 1H-tetrazole CH2N4 casno=288948 state=1 config=1 method=5 basis=6
 -----------------------------------------------------------------
 Symbolic Z-matrix:
 Charge =  0 Multiplicity = 1

 SCF Done:  E(RHF) =  -256.848466948     A.U. after   14 cycles
 E2 =    -0.9516515969D+00 EUMP2 =    -0.25780011854461D+03
 SCF Done:  E(RHF) =  -256.845272637     A.U. after   12 cycles
 E2 =    -0.9588365002D+00 EUMP2 =    -0.25780410913719D+03
 SCF Done:  E(RHF) =  -256.844763745     A.U. after   10 cycles
 E2 =    -0.9595481590D+00 EUMP2 =    -0.25780431190445D+03
 SCF Done:  E(RHF) =  -256.844926401     A.U. after   11 cycles
 E2 =    -0.9592877282D+00 EUMP2 =    -0.25780421412943D+03
 SCF Done:  E(RHF) =  -256.844659555     A.U. after    9 cycles
 E2 =    -0.9596992504D+00 EUMP2 =    -0.25780435880518D+03
 SCF Done:  E(RHF) =  -256.844871784     A.U. after   10 cycles
 E2 =    -0.9594714652D+00 EUMP2 =    -0.25780434324938D+03
 SCF Done:  E(RHF) =  -256.844688714     A.U. after    9 cycles
 E2 =    -0.9596685291D+00 EUMP2 =    -0.25780435724360D+03
 SCF Done:  E(RHF) =  -256.844708463     A.U. after    8 cycles
 E2 =    -0.9596439527D+00 EUMP2 =    -0.25780435241534D+03
 SCF Done:  E(RHF) =  -256.844746630     A.U. after   10 cycles
 E2 =    -0.9596003405D+00 EUMP2 =    -0.25780434697026D+03
 SCF Done:  E(RHF) =  -256.844698197     A.U. after    7 cycles
 E2 =    -0.9596591212D+00 EUMP2 =    -0.25780435731857D+03
 E2 =    -0.9596332680D+00 EUMP2 =    -0.25780434857479D+03
 E2 =    -0.9596557588D+00 EUMP2 =    -0.25780435687175D+03
 E2 =    -0.9596549220D+00 EUMP2 =    -0.25780435844670D+03
 Optimization completed.
    -- Stationary point found.
 Normal termination of Gaussian 09 at Thu Nov 28 15:18:17 2013.

 ----------------------------------------------------------------------
 #N Geom=AllCheck Guess=TCheck SCRF=Check GenChk RQCISD(FC)/CC-pVTZ Fre
 q
 ----------------------------------------------------------------------

 Structure from the checkpoint file:  "/tmp/rdj3/g09-23219/Gau-13362.chk"
 -----------------------------------------------------------------
 1H-tetrazole CH2N4 casno=288948 state=1 config=1 method=5 basis=6
 -----------------------------------------------------------------
 Charge =  0 Multiplicity = 1

                         Standard orientation:
 ---------------------------------------------------------------------
 Center     Atomic      Atomic             Coordinates (Angstroms)
 Number     Number       Type             X           Y           Z
 ---------------------------------------------------------------------
      1          6           0        1.061950    0.232973    0.000000
      2          7           0        0.000000    1.052402    0.000000
      3          7           0       -1.115019    0.299338    0.000000
      4          7           0       -0.723743   -0.919872    0.000000
      5          7           0        0.639051   -1.004665    0.000000
      6          1           0        2.085336    0.558420    0.000000
      7          1           0       -0.059056    2.053323    0.000000
 ---------------------------------------------------------------------

 E2 =    -0.9596549163D+00 EUMP2 =    -0.25780435844099D+03
 E2 =    -0.9597037268D+00 EUMP2 =    -0.25780437014753D+03
 E2 =    -0.9596063493D+00 EUMP2 =    -0.25780434344394D+03
 E2 =    -0.9596980806D+00 EUMP2 =    -0.25780437456712D+03
 E2 =    -0.9596117957D+00 EUMP2 =    -0.25780433981506D+03
 E2 =    -0.9596550185D+00 EUMP2 =    -0.25780435819082D+03
 E2 =    -0.9596620541D+00 EUMP2 =    -0.25780435348822D+03
 E2 =    -0.9596497307D+00 EUMP2 =    -0.25780437159669D+03
 E2 =    -0.9596602284D+00 EUMP2 =    -0.25780434375641D+03
 E2 =    -0.9595297458D+00 EUMP2 =    -0.25780431294002D+03
 E2 =    -0.9597803366D+00 EUMP2 =    -0.25780440179488D+03
 E2 =    -0.9596549985D+00 EUMP2 =    -0.25780435822636D+03
 E2 =    -0.9596800308D+00 EUMP2 =    -0.25780435016238D+03
 E2 =    -0.9596299378D+00 EUMP2 =    -0.25780436534978D+03
 E2 =    -0.9595762855D+00 EUMP2 =    -0.25780433767866D+03
 E2 =    -0.9597336882D+00 EUMP2 =    -0.25780437693600D+03
 E2 =    -0.9596549779D+00 EUMP2 =    -0.25780435824662D+03
 SCF Done:  E(RHF) =  -256.844693007     A.U. after    6 cycles
 E2 =    -0.9596647650D+00 EUMP2 =    -0.25780435777157D+03
 SCF Done:  E(RHF) =  -256.844712733     A.U. after    7 cycles
 E2 =    -0.9596451110D+00 EUMP2 =    -0.25780435784363D+03
 SCF Done:  E(RHF) =  -256.844699874     A.U. after    6 cycles
 E2 =    -0.9596588737D+00 EUMP2 =    -0.25780435874778D+03
 SCF Done:  E(RHF) =  -256.844706843     A.U. after    7 cycles
 E2 =    -0.9596509968D+00 EUMP2 =    -0.25780435783968D+03
 SCF Done:  E(RHF) =  -256.844703466     A.U. after    6 cycles
 E2 =    -0.9596549289D+00 EUMP2 =    -0.25780435839501D+03
 SCF Done:  E(RHF) =  -256.844705581     A.U. after    6 cycles
 E2 =    -0.9596516656D+00 EUMP2 =    -0.25780435724648D+03
 SCF Done:  E(RHF) =  -256.844701196     A.U. after    6 cycles
 E2 =    -0.9596582296D+00 EUMP2 =    -0.25780435942601D+03
 SCF Done:  E(RHF) =  -256.844679845     A.U. after    7 cycles
 E2 =    -0.9596843213D+00 EUMP2 =    -0.25780436416589D+03
 SCF Done:  E(RHF) =  -256.844725421     A.U. after    7 cycles
 E2 =    -0.9596255174D+00 EUMP2 =    -0.25780435093869D+03
 SCF Done:  E(RHF) =  -256.844703489     A.U. after    5 cycles
 E2 =    -0.9596549257D+00 EUMP2 =    -0.25780435841482D+03

 Alpha  occ. eigenvalues --  -15.67915 -15.66138 -15.64476 -15.60149 -11.33534
 Alpha  occ. eigenvalues --   -1.49522  -1.25436  -1.19673  -0.90624  -0.88897
 Alpha  occ. eigenvalues --   -0.80035  -0.67779  -0.67600  -0.56939  -0.47697
 Alpha  occ. eigenvalues --   -0.47219  -0.45473  -0.42015
 Alpha virt. eigenvalues --    0.11652   0.13399   0.15777   0.17882   0.26964
 Alpha virt. eigenvalues --    0.29514   0.34941   0.41040   0.42382   0.47356
 Alpha virt. eigenvalues --    0.51641   0.55416   0.56357   0.57570   0.59215

 Mulliken charges:
               1
     1  C   -0.074203
     2  N   -0.038805
     3  N   -0.065927
     4  N   -0.069091
     5  N   -0.153478
     6  H    0.184880
     7  H    0.216624
 Sum of Mulliken charges =   0.00000

 Dipole moment (field-independent basis, Debye):
    X=              2.4341    Y=              4.7182    Z=              0.0016  Tot=              5.3090
 Quadrupole moment (field-independent basis, Debye-Ang):
   XX=            -28.9777   YY=            -26.5442   ZZ=            -28.4826
   XY=              1.8991   XZ=             -0.0001   YZ=              0.0037

                      1                      2                      3
                     A"                     A"                     A"
 Frequencies --    568.2527               697.4850               748.5427
 Red. masses --      1.6459                 2.1412                 8.2017
 Frc consts  --      0.3131                 0.6137                 2.7076
 IR Inten    --     86.1504                 5.3080                 8.7338

                      4                      5                      6
                     A"                     A'                     A'
 Frequencies --    905.4325               978.7205              1021.3959
 Red. masses --      1.3651                 5.4335                 6.8490
 Frc consts  --      0.6594                 3.0665                 4.2098
 IR Inten    --     16.4241                 2.9872                 0.4549

                      7                      8                      9
                     A'                     A'                     A'
 Frequencies --   1064.3306              1082.8435              1165.1474
 Red. masses --      5.0484                 3.0216                 1.9061
 Frc consts  --      3.3694                 2.0875                 1.5246
 IR Inten    --     18.3937                26.9610                16.5630

                     10                     11                     12
                     A'                     A'                     A'
 Frequencies --   1294.0482              1344.6293              1495.3645
 Red. masses --      2.4067                 9.7668                 2.9590
 Frc consts  --      2.3745                10.4042                 3.8984
 IR Inten    --      0.5111                16.5392                12.6730

                     13                     14                     15
                     A'                     A'                     A'
 Frequencies --   1545.6047              3319.6138              3718.2533
 Red. masses --      3.6277                 1.1022                 1.0841
 Frc consts  --      5.1060                 7.1560                 8.8304
 IR Inten    --     17.9858                 1.2103               108.4140

 - Thermochemistry -
 -------------------
 Temperature   298.150 Kelvin.  Pressure   1.00000 Atm.
 Atom     1 has atomic number  6 and mass  12.00000

 Molecular mass:    70.02795 amu.
 Principal axes and moments of inertia in atomic units:
                           1         2         3
     Eigenvalues --   170.11566 173.38390 343.49956
           X            0.86639   0.49937   0.00000
           Y           -0.49937   0.86639   0.00000
           Z            0.00000   0.00000   1.00000
 This molecule is an asymmetric top.
 Rotational symmetry number  1.
 Rotational temperatures (Kelvin)      0.50915     0.49955     0.25215
 Rotational constants (GHZ):          10.60891    10.40893     5.25398
 Zero-point vibrational energy     125306.8 (Joules/Mol)
                                   29.94905 (Kcal/Mol)
 Warning -- explicit consideration of   1 degrees of freedom as
           vibrations may cause significant error
 Vibrational temperatures:    817.59  1003.52  1076.98  1302.71  1408.16
          (Kelvin)           1469.56  1531.33  1557.97  1676.39  1861.84
                             1934.62  2151.49  2223.78  4776.18  5349.73

 Zero-point correction=                           0.047727 (Hartree/Particle)
 Thermal correction to Energy=                    0.051177
 Thermal correction to Enthalpy=                  0.052121
 Thermal correction to Gibbs Free Energy=         0.021646
 Sum of electronic and zero-point Energies=           -257.753257
 Sum of electronic and thermal Energies=              -257.749806
 Sum of electronic and thermal Enthalpies=            -257.748862
 Sum of electronic and thermal Free Energies=         -257.779337

                     E (Thermal)             CV                S
                      KCal/Mol        Cal/Mol-Kelvin    Cal/Mol-Kelvin
 Total                   32.114             11.137             64.141
 Electronic               0.000              0.000              0.000
 Translational            0.889              2.981             38.656
 Rotational               0.889              2.981             23.831
 Vibrational             30.337              5.176              1.654
 Vibration     1          0.924              1.100              0.508

 Optimization completed.
    -- Stationary point found.
 Normal termination of Gaussian 09 at Fri Nov 29 16:59:10 2013.
