 Gaussian 09, Revision D.01,
 Gaussian 09:  EM64L-G09RevD.01 24-Apr-2013

 ----------------------------------------
 #QCISD/6-311G* opt=z-matrix freq density
 ----------------------------------------

 -----------------------------------------------------------------
 1H-tetrazole CH2N4 casno=288948 state=1 config=1 method=5 basis=7
 -----------------------------------------------------------------
 Symbolic Z-matrix:
 Charge =  0 Multiplicity = 1

 SCF Done:  E(RHF) =  -256.810747258     A.U. after   14 cycles
 E2 =    -0.8105285881D+00 EUMP2 =    -0.25762127584607D+03
 SCF Done:  E(RHF) =  -256.806503245     A.U. after   12 cycles
 E2 =    -0.8198840477D+00 EUMP2 =    -0.25762638729246D+03
 SCF Done:  E(RHF) =  -256.805989139     A.U. after   11 cycles
 E2 =    -0.8205709528D+00 EUMP2 =    -0.25762656009215D+03
 SCF Done:  E(RHF) =  -256.806282484     A.U. after   12 cycles
 E2 =    -0.8202111439D+00 EUMP2 =    -0.25762649362801D+03
 SCF Done:  E(RHF) =  -256.805839964     A.U. after   10 cycles
 E2 =    -0.8207774160D+00 EUMP2 =    -0.25762661738026D+03
 SCF Done:  E(RHF) =  -256.806124225     A.U. after   11 cycles
 E2 =    -0.8204677633D+00 EUMP2 =    -0.25762659198813D+03
 SCF Done:  E(RHF) =  -256.805844406     A.U. after    9 cycles
 E2 =    -0.8207854817D+00 EUMP2 =    -0.25762662988801D+03
 SCF Done:  E(RHF) =  -256.805918073     A.U. after   11 cycles
 E2 =    -0.8206489660D+00 EUMP2 =    -0.25762656703942D+03
 SCF Done:  E(RHF) =  -256.805874310     A.U. after    8 cycles
 E2 =    -0.8207504558D+00 EUMP2 =    -0.25762662476613D+03
 SCF Done:  E(RHF) =  -256.805887495     A.U. after   10 cycles
 E2 =    -0.8207706836D+00 EUMP2 =    -0.25762665817866D+03
 E2 =    -0.8207502122D+00 EUMP2 =    -0.25762662697481D+03
 E2 =    -0.8207495220D+00 EUMP2 =    -0.25762663495352D+03
 E2 =    -0.8207507174D+00 EUMP2 =    -0.25762662894431D+03
 E2 =    -0.8207200567D+00 EUMP2 =    -0.25762662265207D+03
 E2 =    -0.8207472443D+00 EUMP2 =    -0.25762662875101D+03
 E2 =    -0.8207463604D+00 EUMP2 =    -0.25762662959616D+03
 E2 =    -0.8207469004D+00 EUMP2 =    -0.25762662836059D+03
 E2 =    -0.8207394623D+00 EUMP2 =    -0.25762663159597D+03
 E2 =    -0.8207487496D+00 EUMP2 =    -0.25762662953384D+03
 Optimization completed.
    -- Stationary point found.
 Normal termination of Gaussian 09 at Fri Nov 29 17:50:00 2013.

 ----------------------------------------------------------------------
 #N Geom=AllCheck Guess=TCheck SCRF=Check GenChk RQCISD(FC)/6-311G(d) F
 req
 ----------------------------------------------------------------------

 Structure from the checkpoint file:  "/tmp/rdj3/g09-23219/Gau-25805.chk"
 -----------------------------------------------------------------
 1H-tetrazole CH2N4 casno=288948 state=1 config=1 method=5 basis=7
 -----------------------------------------------------------------
 Charge =  0 Multiplicity = 1

                         Standard orientation:
 ---------------------------------------------------------------------
 Center     Atomic      Atomic             Coordinates (Angstroms)
 Number     Number       Type             X           Y           Z
 ---------------------------------------------------------------------
      1          6           0        1.066927    0.232644    0.000000
      2          7           0        0.000000    1.055789    0.000000
      3          7           0       -1.118546    0.301379    0.000000
      4          7           0       -0.726094   -0.922279    0.000000
      5          7           0        0.639527   -1.008251    0.000000
      6          1           0        2.097383    0.557586    0.000000
      7          1           0       -0.063152    2.060075    0.000000
 ---------------------------------------------------------------------

 E2 =    -0.8207487390D+00 EUMP2 =    -0.25762662952320D+03
 E2 =    -0.8207411543D+00 EUMP2 =    -0.25762664341384D+03
 E2 =    -0.8207564387D+00 EUMP2 =    -0.25762661408512D+03
 E2 =    -0.8206205554D+00 EUMP2 =    -0.25762658859423D+03
 E2 =    -0.8208771104D+00 EUMP2 =    -0.25762666825962D+03
 E2 =    -0.8207488215D+00 EUMP2 =    -0.25762662930783D+03
 E2 =    -0.8207750192D+00 EUMP2 =    -0.25762662094648D+03
 E2 =    -0.8207225531D+00 EUMP2 =    -0.25762663668722D+03
 E2 =    -0.8206656579D+00 EUMP2 =    -0.25762661251535D+03
 E2 =    -0.8208319341D+00 EUMP2 =    -0.25762664424860D+03
 E2 =    -0.8207488011D+00 EUMP2 =    -0.25762662932776D+03
 SCF Done:  E(RHF) =  -256.805862560     A.U. after    7 cycles
 E2 =    -0.8207641098D+00 EUMP2 =    -0.25762662666992D+03
 SCF Done:  E(RHF) =  -256.805897711     A.U. after    8 cycles
 E2 =    -0.8207333922D+00 EUMP2 =    -0.25762663110365D+03
 SCF Done:  E(RHF) =  -256.805875174     A.U. after    8 cycles
 E2 =    -0.8207539524D+00 EUMP2 =    -0.25762662912628D+03
 SCF Done:  E(RHF) =  -256.805886062     A.U. after    8 cycles
 E2 =    -0.8207435585D+00 EUMP2 =    -0.25762662962054D+03
 SCF Done:  E(RHF) =  -256.805880724     A.U. after    7 cycles
 E2 =    -0.8207487510D+00 EUMP2 =    -0.25762662947509D+03
 SCF Done:  E(RHF) =  -256.805883580     A.U. after    7 cycles
 E2 =    -0.8207449025D+00 EUMP2 =    -0.25762662848235D+03
 SCF Done:  E(RHF) =  -256.805877702     A.U. after    8 cycles
 E2 =    -0.8207526262D+00 EUMP2 =    -0.25762663032838D+03
 SCF Done:  E(RHF) =  -256.805850289     A.U. after    7 cycles
 E2 =    -0.8207819955D+00 EUMP2 =    -0.25762663228481D+03
 SCF Done:  E(RHF) =  -256.805909499     A.U. after    8 cycles
 E2 =    -0.8207155061D+00 EUMP2 =    -0.25762662500465D+03
 SCF Done:  E(RHF) =  -256.805880744     A.U. after    6 cycles
 E2 =    -0.8207487462D+00 EUMP2 =    -0.25762662949058D+03

 Alpha  occ. eigenvalues --  -15.68112 -15.66189 -15.64365 -15.60147 -11.34079
 Alpha  occ. eigenvalues --   -1.49572  -1.25564  -1.19811  -0.90786  -0.88927
 Alpha  occ. eigenvalues --   -0.80093  -0.67697  -0.67534  -0.56955  -0.47808
 Alpha  occ. eigenvalues --   -0.47259  -0.45434  -0.42001
 Alpha virt. eigenvalues --    0.12724   0.13562   0.16641   0.18318   0.33117
 Alpha virt. eigenvalues --    0.36002   0.37348   0.46103   0.52018   0.56514
 Alpha virt. eigenvalues --    0.61463   0.62492   0.68972   0.74947   0.77844

 Mulliken charges:
               1
     1  C    0.123962
     2  N   -0.436488
     3  N   -0.010216
     4  N   -0.080504
     5  N   -0.243925
     6  H    0.263847
     7  H    0.383324
 Sum of Mulliken charges =   0.00000

 Dipole moment (field-independent basis, Debye):
    X=              2.5028    Y=              4.8601    Z=              0.0018  Tot=              5.4667
 Quadrupole moment (field-independent basis, Debye-Ang):
   XX=            -29.0902   YY=            -26.6577   ZZ=            -28.6083
   XY=              1.9041   XZ=             -0.0001   YZ=              0.0040

                      1                      2                      3
                     A"                     A"                     A"
 Frequencies --    561.9582               694.4266               738.1833
 Red. masses --      1.8077                 1.9796                 7.7344
 Frc consts  --      0.3364                 0.5624                 2.4832
 IR Inten    --     99.1209                 9.9083                 9.9821

                      4                      5                      6
                     A"                     A'                     A'
 Frequencies --    871.6374               981.8706              1023.7738
 Red. masses --      1.3494                 5.2211                 7.2101
 Frc consts  --      0.6040                 2.9656                 4.4525
 IR Inten    --     21.5108                 2.9167                 0.5465

                      7                      8                      9
                     A'                     A'                     A'
 Frequencies --   1071.3480              1095.0703              1165.8961
 Red. masses --      4.6346                 3.2299                 1.8807
 Frc consts  --      3.1342                 2.2820                 1.5062
 IR Inten    --     20.4878                27.9770                14.9720

                     10                     11                     12
                     A'                     A'                     A'
 Frequencies --   1295.2879              1348.0016              1501.1374
 Red. masses --      2.6279                 8.9149                 3.2686
 Frc consts  --      2.5977                 9.5444                 4.3397
 IR Inten    --      0.1870                19.3362                11.6101

                     13                     14                     15
                     A'                     A'                     A'
 Frequencies --   1550.8682              3301.0281              3721.8987
 Red. masses --      3.0393                 1.1022                 1.0839
 Frc consts  --      4.3070                 7.0765                 8.8466
 IR Inten    --     21.7212                 0.5685                91.9235

 - Thermochemistry -
 -------------------
 Temperature   298.150 Kelvin.  Pressure   1.00000 Atm.
 Atom     1 has atomic number  6 and mass  12.00000

 Molecular mass:    70.02795 amu.
 Principal axes and moments of inertia in atomic units:
                           1         2         3
     Eigenvalues --   171.16156 174.65777 345.81933
           X            0.86857   0.49557   0.00000
           Y           -0.49557   0.86857   0.00000
           Z            0.00000   0.00000   1.00000
 This molecule is an asymmetric top.
 Rotational symmetry number  1.
 Rotational temperatures (Kelvin)      0.50604     0.49591     0.25046
 Rotational constants (GHZ):          10.54408    10.33301     5.21874
 Zero-point vibrational energy     125143.7 (Joules/Mol)
                                   29.91005 (Kcal/Mol)
 Warning -- explicit consideration of   1 degrees of freedom as
           vibrations may cause significant error
 Vibrational temperatures:    808.53   999.12  1062.08  1254.09  1412.69
          (Kelvin)           1472.98  1541.43  1575.56  1677.46  1863.63
                             1939.47  2159.80  2231.35  4749.44  5354.98

 Zero-point correction=                           0.047665 (Hartree/Particle)
 Thermal correction to Energy=                    0.051128
 Thermal correction to Enthalpy=                  0.052072
 Thermal correction to Gibbs Free Energy=         0.021569
 Sum of electronic and zero-point Energies=           -257.584211
 Sum of electronic and thermal Energies=              -257.580748
 Sum of electronic and thermal Enthalpies=            -257.579804
 Sum of electronic and thermal Free Energies=         -257.610306

                     E (Thermal)             CV                S
                      KCal/Mol        Cal/Mol-Kelvin    Cal/Mol-Kelvin
 Total                   32.083             11.194             64.198
 Electronic               0.000              0.000              0.000
 Translational            0.889              2.981             38.656
 Rotational               0.889              2.981             23.851
 Vibrational             30.306              5.232              1.691
 Vibration     1          0.918              1.114              0.520

 Normal termination of Gaussian 09 at Fri Nov 29 19:51:05 2013.
