 Gaussian 09, Revision D.01,
 Gaussian 09:  EM64L-G09RevD.01 24-Apr-2013

 ---------------------------------------
 #QCISD/3-21G* opt=z-matrix freq density
 ---------------------------------------

 -----------------------------------------------------------------
 1H-tetrazole CH2N4 casno=288948 state=1 config=1 method=5 basis=8
 -----------------------------------------------------------------
 Symbolic Z-matrix:
 Charge =  0 Multiplicity = 1

 SCF Done:  E(RHF) =  -255.261114440     A.U. after   14 cycles
 E2 =    -0.5240768282D+00 EUMP2 =    -0.25578519126841D+03
 SCF Done:  E(RHF) =  -255.265025668     A.U. after   15 cycles
 E2 =    -0.5496049905D+00 EUMP2 =    -0.25581463065848D+03
 SCF Done:  E(RHF) =  -255.259520097     A.U. after   14 cycles
 E2 =    -0.5586668744D+00 EUMP2 =    -0.25581818697128D+03
 SCF Done:  E(RHF) =  -255.256681098     A.U. after   14 cycles
 E2 =    -0.5590236198D+00 EUMP2 =    -0.25581570471766D+03
 SCF Done:  E(RHF) =  -255.258648285     A.U. after   14 cycles
 E2 =    -0.5589678160D+00 EUMP2 =    -0.25581761610099D+03
 SCF Done:  E(RHF) =  -255.259812426     A.U. after   12 cycles
 E2 =    -0.5592588849D+00 EUMP2 =    -0.25581907131081D+03
 SCF Done:  E(RHF) =  -255.260230043     A.U. after   13 cycles
 E2 =    -0.5582409861D+00 EUMP2 =    -0.25581847102925D+03
 SCF Done:  E(RHF) =  -255.259316404     A.U. after   13 cycles
 E2 =    -0.5598576130D+00 EUMP2 =    -0.25581917401713D+03
 SCF Done:  E(RHF) =  -255.258964001     A.U. after   12 cycles
 E2 =    -0.5603078655D+00 EUMP2 =    -0.25581927186675D+03
 SCF Done:  E(RHF) =  -255.259933118     A.U. after   14 cycles
 E2 =    -0.5586494960D+00 EUMP2 =    -0.25581858261434D+03
 E2 =    -0.5602136035D+00 EUMP2 =    -0.25581914594899D+03
 E2 =    -0.5601129007D+00 EUMP2 =    -0.25581912907579D+03
 E2 =    -0.5574635433D+00 EUMP2 =    -0.25581812300569D+03
 E2 =    -0.5600115434D+00 EUMP2 =    -0.25581907962519D+03
 E2 =    -0.5599828970D+00 EUMP2 =    -0.25581908042583D+03
 E2 =    -0.5594753457D+00 EUMP2 =    -0.25581913690876D+03
 E2 =    -0.5599862205D+00 EUMP2 =    -0.25581909163802D+03
 Optimization completed.
    -- Stationary point found.
 Normal termination of Gaussian 09 at Fri Nov 29 19:55:58 2013.

 ----------------------------------------------------------------------
 #N Geom=AllCheck Guess=TCheck SCRF=Check GenChk RQCISD(FC)/3-21G* Freq
 ----------------------------------------------------------------------

 Structure from the checkpoint file:  "/tmp/rdj3/g09-23219/Gau-32335.chk"
 -----------------------------------------------------------------
 1H-tetrazole CH2N4 casno=288948 state=1 config=1 method=5 basis=8
 -----------------------------------------------------------------
 Charge =  0 Multiplicity = 1

                         Standard orientation:
 ---------------------------------------------------------------------
 Center     Atomic      Atomic             Coordinates (Angstroms)
 Number     Number       Type             X           Y           Z
 ---------------------------------------------------------------------
      1          6           0        1.086442    0.259713    0.000000
      2          7           0        0.000000    1.096851    0.000000
      3          7           0       -1.181767    0.287357    0.000000
      4          7           0       -0.759092   -0.975000    0.000000
      5          7           0        0.718236   -1.019469    0.000000
      6          1           0        2.107557    0.606427    0.000000
      7          1           0       -0.067844    2.107113    0.000000
 ---------------------------------------------------------------------

 E2 =    -0.5599862212D+00 EUMP2 =    -0.25581909163879D+03
 E2 =    -0.5600346862D+00 EUMP2 =    -0.25581910005675D+03
 E2 =    -0.5599379502D+00 EUMP2 =    -0.25581908023131D+03
 E2 =    -0.5599643133D+00 EUMP2 =    -0.25581909956956D+03
 E2 =    -0.5600082482D+00 EUMP2 =    -0.25581908277354D+03
 E2 =    -0.5598377716D+00 EUMP2 =    -0.25581904448655D+03
 E2 =    -0.5601348744D+00 EUMP2 =    -0.25581913735814D+03
 E2 =    -0.5599863051D+00 EUMP2 =    -0.25581909147207D+03
 E2 =    -0.5600379059D+00 EUMP2 =    -0.25581909343397D+03
 E2 =    -0.5599346304D+00 EUMP2 =    -0.25581908898500D+03
 E2 =    -0.5598826774D+00 EUMP2 =    -0.25581907106705D+03
 E2 =    -0.5600898673D+00 EUMP2 =    -0.25581911032864D+03
 E2 =    -0.5599862927D+00 EUMP2 =    -0.25581909147650D+03
 SCF Done:  E(RHF) =  -255.259082302     A.U. after    8 cycles
 E2 =    -0.5600045570D+00 EUMP2 =    -0.25581908685864D+03
 SCF Done:  E(RHF) =  -255.259127264     A.U. after    9 cycles
 E2 =    -0.5599679035D+00 EUMP2 =    -0.25581909516793D+03
 SCF Done:  E(RHF) =  -255.259097290     A.U. after    9 cycles
 E2 =    -0.5599933531D+00 EUMP2 =    -0.25581909064318D+03
 SCF Done:  E(RHF) =  -255.259113196     A.U. after   10 cycles
 E2 =    -0.5599791265D+00 EUMP2 =    -0.25581909232225D+03
 SCF Done:  E(RHF) =  -255.259105350     A.U. after    7 cycles
 E2 =    -0.5599862457D+00 EUMP2 =    -0.25581909159577D+03
 SCF Done:  E(RHF) =  -255.259107122     A.U. after    9 cycles
 E2 =    -0.5599840175D+00 EUMP2 =    -0.25581909113981D+03
 SCF Done:  E(RHF) =  -255.259103447     A.U. after   10 cycles
 E2 =    -0.5599884849D+00 EUMP2 =    -0.25581909193202D+03
 SCF Done:  E(RHF) =  -255.259073624     A.U. after    8 cycles
 E2 =    -0.5600191111D+00 EUMP2 =    -0.25581909273522D+03
 SCF Done:  E(RHF) =  -255.259135538     A.U. after    9 cycles
 E2 =    -0.5599533660D+00 EUMP2 =    -0.25581908890361D+03
 SCF Done:  E(RHF) =  -255.259105375     A.U. after    7 cycles
 E2 =    -0.5599862422D+00 EUMP2 =    -0.25581909161722D+03

 Alpha  occ. eigenvalues --  -15.62316 -15.61528 -15.60354 -15.55446 -11.30879
 Alpha  occ. eigenvalues --   -1.46781  -1.23392  -1.20842  -0.89281  -0.87550
 Alpha  occ. eigenvalues --   -0.79543  -0.65589  -0.65416  -0.55725  -0.48496
 Alpha  occ. eigenvalues --   -0.46167  -0.44862  -0.42783
 Alpha virt. eigenvalues --    0.11751   0.16817   0.23091   0.25328   0.33266
 Alpha virt. eigenvalues --    0.37288   0.45710   0.54356   0.61211   0.92377
 Alpha virt. eigenvalues --    0.93835   1.04607   1.09177   1.20760   1.31684

 Mulliken charges:
               1
     1  C    0.324776
     2  N   -0.548545
     3  N   -0.018886
     4  N   -0.066477
     5  N   -0.333679
     6  H    0.269815
     7  H    0.372996
 Sum of Mulliken charges =   0.00000

 Dipole moment (field-independent basis, Debye):
    X=              2.3886    Y=              4.8749    Z=              0.0020  Tot=              5.4286
 Quadrupole moment (field-independent basis, Debye-Ang):
   XX=            -29.6537   YY=            -27.2143   ZZ=            -28.9174
   XY=              2.1288   XZ=             -0.0001   YZ=              0.0044

                      1                      2                      3
                     A"                     A"                     A"
 Frequencies --    585.6560               659.1961               674.2474
 Red. masses --      1.9257                 1.7394                 9.0144
 Frc consts  --      0.3891                 0.4453                 2.4145
 IR Inten    --    136.1462                26.2678                10.1608

                      4                      5                      6
                     A'                     A'                     A"
 Frequencies --    724.9447               847.6053               911.6657
 Red. masses --     11.3849                 6.0608                 1.3664
 Frc consts  --      3.5252                 2.5655                 0.6691
 IR Inten    --     13.0416                16.6014                16.1992

                      7                      8                      9
                     A'                     A'                     A'
 Frequencies --    969.0986              1000.5001              1061.3649
 Red. masses --      5.1688                 7.0087                 7.4822
 Frc consts  --      2.8601                 4.1336                 4.9660
 IR Inten    --      7.3841                 6.5989                 2.8916

                     10                     11                     12
                     A'                     A'                     A'
 Frequencies --   1130.9938              1221.2306              1366.5544
 Red. masses --      2.6868                 2.0640                 2.2187
 Frc consts  --      2.0249                 1.8137                 2.4412
 IR Inten    --     13.0413                10.5910                 8.2873

                     13                     14                     15
                     A'                     A'                     A'
 Frequencies --   1442.2267              3295.8525              3605.8286
 Red. masses --      2.0528                 1.0996                 1.0842
 Frc consts  --      2.5157                 7.0374                 8.3058
 IR Inten    --     43.7248                 1.1963               106.7120

 - Thermochemistry -
 -------------------
 Temperature   298.150 Kelvin.  Pressure   1.00000 Atm.
 Atom     1 has atomic number  6 and mass  12.00000

 Molecular mass:    70.02795 amu.
 Principal axes and moments of inertia in atomic units:
                           1         2         3
     Eigenvalues --   183.55714 190.88724 374.44438
           X            0.99554   0.09433   0.00000
           Y           -0.09433   0.99554   0.00000
           Z            0.00000   0.00000   1.00000
 This molecule is an asymmetric top.
 Rotational symmetry number  1.
 Rotational temperatures (Kelvin)      0.47186     0.45374     0.23131
 Rotational constants (GHZ):           9.83204     9.45449     4.81978
 Zero-point vibrational energy     116617.7 (Joules/Mol)
                                   27.87231 (Kcal/Mol)
 Warning -- explicit consideration of   1 degrees of freedom as
           vibrations may cause significant error
 Vibrational temperatures:    842.63   948.44   970.09  1043.03  1219.51
          (Kelvin)           1311.68  1394.32  1439.49  1527.07  1627.25
                             1757.08  1966.16  2075.04  4741.99  5187.98

 Zero-point correction=                           0.044417 (Hartree/Particle)
 Thermal correction to Energy=                    0.048052
 Thermal correction to Enthalpy=                  0.048996
 Thermal correction to Gibbs Free Energy=         0.018160
 Sum of electronic and zero-point Energies=           -255.778915
 Sum of electronic and thermal Energies=              -255.775281
 Sum of electronic and thermal Enthalpies=            -255.774337
 Sum of electronic and thermal Free Energies=         -255.805172

                     E (Thermal)             CV                S
                      KCal/Mol        Cal/Mol-Kelvin    Cal/Mol-Kelvin
 Total                   30.153             12.414             64.899
 Electronic               0.000              0.000              0.000
 Translational            0.889              2.981             38.656
 Rotational               0.889              2.981             24.088
 Vibrational             28.375              6.453              2.155
 Vibration     1          0.943              1.062              0.475

 Optimization completed.
    -- Stationary point found.
 Normal termination of Gaussian 09 at Fri Nov 29 20:09:54 2013.
