 Gaussian 09, Revision D.01,
 Gaussian 09:  EM64L-G09RevD.01 24-Apr-2013

 -----------------------------
 #QCISD/6-31G opt freq density
 -----------------------------

 -----------------------------------------------------------------
 1H-tetrazole CH2N4 casno=288948 state=1 config=1 method=5 basis=9
 -----------------------------------------------------------------
 Symbolic Z-matrix:
 Charge =  0 Multiplicity = 1

 SCF Done:  E(RHF) =  -256.588556245     A.U. after   15 cycles
 E2 =    -0.5280571919D+00 EUMP2 =    -0.25711661343668D+03
 SCF Done:  E(RHF) =  -256.584727170     A.U. after   15 cycles
 E2 =    -0.5557931765D+00 EUMP2 =    -0.25714052034629D+03
 SCF Done:  E(RHF) =  -256.579414370     A.U. after   14 cycles
 E2 =    -0.5632021409D+00 EUMP2 =    -0.25714261651110D+03
 SCF Done:  E(RHF) =  -256.579352347     A.U. after   13 cycles
 E2 =    -0.5638373407D+00 EUMP2 =    -0.25714318968757D+03
 SCF Done:  E(RHF) =  -256.579955063     A.U. after   12 cycles
 E2 =    -0.5631128710D+00 EUMP2 =    -0.25714306793441D+03
 SCF Done:  E(RHF) =  -256.580328053     A.U. after   12 cycles
 E2 =    -0.5626064471D+00 EUMP2 =    -0.25714293450033D+03
 SCF Done:  E(RHF) =  -256.580293126     A.U. after   10 cycles
 E2 =    -0.5625885418D+00 EUMP2 =    -0.25714288166821D+03
 SCF Done:  E(RHF) =  -256.580214030     A.U. after   11 cycles
 E2 =    -0.5626377878D+00 EUMP2 =    -0.25714285181772D+03
 Optimization completed.
    -- Stationary point found.
 Normal termination of Gaussian 09 at Tue Dec 17 09:12:03 2013.

 ---------------------------------------------------------------------
 #N Geom=AllCheck Guess=TCheck SCRF=Check GenChk RQCISD(FC)/6-31G Freq
 ---------------------------------------------------------------------

 Structure from the checkpoint file:  "/tmp/rdj3/g09-18029/Gau-10809.chk"
 -----------------------------------------------------------------
 1H-tetrazole CH2N4 casno=288948 state=1 config=1 method=5 basis=9
 -----------------------------------------------------------------
 Charge =  0 Multiplicity = 1

                         Standard orientation:
 ---------------------------------------------------------------------
 Center     Atomic      Atomic             Coordinates (Angstroms)
 Number     Number       Type             X           Y           Z
 ---------------------------------------------------------------------
      1          6           0        1.092068    0.254881    0.000000
      2          7           0        0.000000    1.083142    0.000000
      3          7           0       -1.161461    0.294739    0.000000
      4          7           0       -0.751351   -0.958273    0.000000
      5          7           0        0.683114   -1.020286    0.000000
      6          1           0        2.121998    0.585034    0.000000
      7          1           0       -0.066524    2.090422    0.000000
 ---------------------------------------------------------------------

 SCF Done:  E(RHF) =  -256.580214030     A.U. after    1 cycles
 E2 =    -0.5626377908D+00 EUMP2 =    -0.25714285182071D+03
 SCF Done:  E(RHF) =  -256.580164886     A.U. after   10 cycles
 E2 =    -0.5626997573D+00 EUMP2 =    -0.25714286464379D+03
 E2 =    -0.5625760329D+00 EUMP2 =    -0.25714283585128D+03
 E2 =    -0.5626873285D+00 EUMP2 =    -0.25714286775838D+03
 E2 =    -0.5625882875D+00 EUMP2 =    -0.25714283365737D+03
 E2 =    -0.5626379519D+00 EUMP2 =    -0.25714285160106D+03
 E2 =    -0.5626517668D+00 EUMP2 =    -0.25714285318344D+03
 E2 =    -0.5626238907D+00 EUMP2 =    -0.25714284870964D+03
 E2 =    -0.5626892202D+00 EUMP2 =    -0.25714285457637D+03
 E2 =    -0.5625865625D+00 EUMP2 =    -0.25714284557926D+03
 E2 =    -0.5626379056D+00 EUMP2 =    -0.25714285165632D+03
 E2 =    -0.5625159613D+00 EUMP2 =    -0.25714282904117D+03
 E2 =    -0.5626054115D+00 EUMP2 =    -0.25714285633044D+03
 E2 =    -0.5626702700D+00 EUMP2 =    -0.25714284629003D+03
 E2 =    -0.5624767041D+00 EUMP2 =    -0.25714280096627D+03
 E2 =    -0.5627990709D+00 EUMP2 =    -0.25714290096198D+03
 E2 =    -0.5626378965D+00 EUMP2 =    -0.25714285164576D+03
 E2 =    -0.5626967786D+00 EUMP2 =    -0.25714285648208D+03
 E2 =    -0.5625788734D+00 EUMP2 =    -0.25714284621446D+03
 E2 =    -0.5625280566D+00 EUMP2 =    -0.25714283028364D+03
 E2 =    -0.5627476421D+00 EUMP2 =    -0.25714287138486D+03
 E2 =    -0.5626378796D+00 EUMP2 =    -0.25714285165605D+03
 SCF Done:  E(RHF) =  -256.580186162     A.U. after    8 cycles
 E2 =    -0.5626610304D+00 EUMP2 =    -0.25714284719231D+03
 SCF Done:  E(RHF) =  -256.580240613     A.U. after    9 cycles
 E2 =    -0.5626145707D+00 EUMP2 =    -0.25714285518404D+03
 SCF Done:  E(RHF) =  -256.580205083     A.U. after    9 cycles
 E2 =    -0.5626458073D+00 EUMP2 =    -0.25714285089001D+03
 SCF Done:  E(RHF) =  -256.580222636     A.U. after   10 cycles
 E2 =    -0.5626298203D+00 EUMP2 =    -0.25714285245611D+03
 SCF Done:  E(RHF) =  -256.580213963     A.U. after    7 cycles
 E2 =    -0.5626378229D+00 EUMP2 =    -0.25714285178564D+03
 SCF Done:  E(RHF) =  -256.580216754     A.U. after    9 cycles
 E2 =    -0.5626341659D+00 EUMP2 =    -0.25714285091996D+03
 SCF Done:  E(RHF) =  -256.580211018     A.U. after   10 cycles
 E2 =    -0.5626414852D+00 EUMP2 =    -0.25714285250280D+03
 SCF Done:  E(RHF) =  -256.580176563     A.U. after    8 cycles
 E2 =    -0.5626770457D+00 EUMP2 =    -0.25714285360914D+03
 SCF Done:  E(RHF) =  -256.580249754     A.U. after    9 cycles
 E2 =    -0.5625985545D+00 EUMP2 =    -0.25714284830882D+03
 SCF Done:  E(RHF) =  -256.580213979     A.U. after    6 cycles
 E2 =    -0.5626378180D+00 EUMP2 =    -0.25714285179708D+03

 Alpha  occ. eigenvalues --  -15.70569 -15.69988 -15.68578 -15.64282 -11.37425
 Alpha  occ. eigenvalues --   -1.50037  -1.25785  -1.22231  -0.91086  -0.89189
 Alpha  occ. eigenvalues --   -0.80586  -0.67459  -0.67094  -0.56896  -0.48916
 Alpha  occ. eigenvalues --   -0.47721  -0.46093  -0.43364
 Alpha virt. eigenvalues --    0.10434   0.15316   0.19019   0.23188   0.32032
 Alpha virt. eigenvalues --    0.33986   0.42497   0.47129   0.58869   0.73552
 Alpha virt. eigenvalues --    0.76117   0.83684   0.88252   0.90150   0.91589

 Mulliken charges:
               1
     1  C    0.308967
     2  N   -0.591686
     3  N    0.029219
     4  N   -0.081156
     5  N   -0.297777
     6  H    0.239187
     7  H    0.393245
 Sum of Mulliken charges =   0.00000

 Dipole moment (field-independent basis, Debye):
    X=              2.7167    Y=              5.1700    Z=              0.0021  Tot=              5.8404
 Quadrupole moment (field-independent basis, Debye-Ang):
   XX=            -30.5425   YY=            -28.2993   ZZ=            -29.3036
   XY=              2.2335   XZ=             -0.0001   YZ=              0.0046

                      1                      2                      3
                     A"                     A"                     A"
 Frequencies --    633.2802               681.4166               698.3587
 Red. masses --      3.4311                 1.2903                 7.6453
 Frc consts  --      0.8107                 0.3530                 2.1969
 IR Inten    --     85.9243                78.7385                14.5707

                      4                      5                      6
                     A'                     A"                     A'
 Frequencies --    765.9453               851.9016               897.9873
 Red. masses --     10.8762                 1.3572                 5.8349
 Frc consts  --      3.7594                 0.5803                 2.7722
 IR Inten    --     10.9392                23.7729                20.1392

                      7                      8                      9
                     A'                     A'                     A'
 Frequencies --    994.8324              1021.3791              1135.0378
 Red. masses --      6.6051                 5.3646                 2.2184
 Frc consts  --      3.8515                 3.2973                 1.6839
 IR Inten    --      3.6718                 9.5239                16.5172

                     10                     11                     12
                     A'                     A'                     A'
 Frequencies --   1199.2422              1236.5851              1414.5663
 Red. masses --      5.0074                 2.5098                 2.7375
 Frc consts  --      4.2430                 2.2612                 3.2274
 IR Inten    --     12.9295                 3.2481                 5.9643

                     13                     14                     15
                     A'                     A'                     A'
 Frequencies --   1489.9050              3311.9377              3699.4378
 Red. masses --      1.9877                 1.1028                 1.0844
 Frc consts  --      2.5997                 7.1272                 8.7439
 IR Inten    --     43.4956                 2.7286               110.7842

 - Thermochemistry -
 -------------------
 Temperature   298.150 Kelvin.  Pressure   1.00000 Atm.
 Atom     1 has atomic number  6 and mass  12.00000

 Molecular mass:    70.02795 amu.
 Principal axes and moments of inertia in atomic units:
                           1         2         3
     Eigenvalues --   180.34795 186.15889 366.50685
           X            0.99820   0.06003   0.00000
           Y           -0.06003   0.99820   0.00000
           Z            0.00000   0.00000   1.00000
 This molecule is an asymmetric top.
 Rotational symmetry number  1.
 Rotational temperatures (Kelvin)      0.48026     0.46527     0.23632
 Rotational constants (GHZ):          10.00700     9.69463     4.92417
 Zero-point vibrational energy     119816.8 (Joules/Mol)
                                   28.63691 (Kcal/Mol)
 Vibrational temperatures:    911.15   980.41  1004.78  1102.02  1225.69
          (Kelvin)           1292.00  1431.34  1469.53  1633.06  1725.44
                             1779.17  2035.24  2143.64  4765.13  5322.66

 Zero-point correction=                           0.045636 (Hartree/Particle)
 Thermal correction to Energy=                    0.049189
 Thermal correction to Enthalpy=                  0.050133
 Thermal correction to Gibbs Free Energy=         0.019439
 Sum of electronic and zero-point Energies=           -257.101438
 Sum of electronic and thermal Energies=              -257.097885
 Sum of electronic and thermal Enthalpies=            -257.096941
 Sum of electronic and thermal Free Energies=         -257.127635

                     E (Thermal)             CV                S
                      KCal/Mol        Cal/Mol-Kelvin    Cal/Mol-Kelvin
 Total                   30.867             11.956             64.601
 Electronic               0.000              0.000              0.000
 Translational            0.889              2.981             38.656
 Rotational               0.889              2.981             24.024
 Vibrational             29.089              5.995              1.921

 Optimization completed.
    -- Stationary point found.
 Normal termination of Gaussian 09 at Tue Dec 17 09:21:57 2013.
