 Gaussian 09, Revision D.01,
 Gaussian 09:  EM64L-G09RevD.01 24-Apr-2013

 -----------------------------
 #PBEPBE/6-31G(2df,p) opt freq
 -----------------------------

 -------------------------------------------------------------------
 1H-tetrazole CH2N4 casno=288948 state=1 config=1 method=61 basis=19
 -------------------------------------------------------------------
 Symbolic Z-matrix:
 Charge =  0 Multiplicity = 1

 SCF Done:  E(RPBE-PBE) =  -257.988818519     A.U. after   15 cycles
 SCF Done:  E(RPBE-PBE) =  -257.995540139     A.U. after   13 cycles
 SCF Done:  E(RPBE-PBE) =  -257.995715894     A.U. after   10 cycles
 SCF Done:  E(RPBE-PBE) =  -257.995732192     A.U. after    9 cycles
 SCF Done:  E(RPBE-PBE) =  -257.995740507     A.U. after    9 cycles
 SCF Done:  E(RPBE-PBE) =  -257.995742197     A.U. after    8 cycles
 Optimization completed.
    -- Stationary point found.
 Normal termination of Gaussian 09 at Mon Dec 16 15:00:23 2013.

 ----------------------------------------------------------------------
 #P Geom=AllCheck Guess=TCheck SCRF=Check GenChk RPBEPBE/6-31G(2df,p) F
 req
 ----------------------------------------------------------------------

 Structure from the checkpoint file:  "/tmp/rdj3/g09-20196/Gau-20252.chk"
 -------------------------------------------------------------------
 1H-tetrazole CH2N4 casno=288948 state=1 config=1 method=61 basis=19
 -------------------------------------------------------------------
 Charge =  0 Multiplicity = 1

                         Standard orientation:
 ---------------------------------------------------------------------
 Center     Atomic      Atomic             Coordinates (Angstroms)
 Number     Number       Type             X           Y           Z
 ---------------------------------------------------------------------
      1          6           0        1.071970    0.238276    0.000000
      2          7           0        0.000000    1.059509    0.000000
      3          7           0       -1.128957    0.305877    0.000000
      4          7           0       -0.724959   -0.932859    0.000000
      5          7           0        0.643230   -1.014856    0.000000
      6          1           0        2.104847    0.573269    0.000000
      7          1           0       -0.061862    2.073387    0.000000
 ---------------------------------------------------------------------

 SCF Done:  E(RPBE-PBE) =  -257.995742197     A.U. after    1 cycles

 The electronic state is 1-A'.
 Alpha  occ. eigenvalues --  -14.10822 -14.06898 -14.05303 -14.02740  -9.98109
 Alpha  occ. eigenvalues --   -1.04374  -0.86140  -0.80936  -0.61434  -0.60049
 Alpha  occ. eigenvalues --   -0.53548  -0.44455  -0.44183  -0.32485  -0.29306
 Alpha  occ. eigenvalues --   -0.27340  -0.25555  -0.24076
 Alpha virt. eigenvalues --   -0.05420  -0.02173   0.03011   0.07823   0.13582
 Alpha virt. eigenvalues --    0.16047   0.22236   0.25714   0.33215   0.37401
 Alpha virt. eigenvalues --    0.43260   0.44020   0.46340   0.48680   0.51707

 Mulliken charges:
               1
     1  C    0.096186
     2  N   -0.183737
     3  N   -0.080320
     4  N   -0.087523
     5  N   -0.210612
     6  H    0.172888
     7  H    0.293117
 Sum of Mulliken charges =   0.00000

 Dipole moment (field-independent basis, Debye):
    X=              2.3454    Y=              4.5285    Z=              0.0000  Tot=              5.0998
 Quadrupole moment (field-independent basis, Debye-Ang):
   XX=            -28.4228   YY=            -25.7198   ZZ=            -27.9925
   XY=              1.7055   XZ=              0.0000   YZ=              0.0000

  Exact polarizability:  40.355   1.039  39.660   0.000   0.000  18.631
 Approx polarizability:  87.080   0.280  92.190   0.000   0.000  33.998

                      1                      2                      3
                     A"                     A"                     A"
 Frequencies --    567.0249               673.5275               720.8689
 Red. masses --      1.7153                 2.0445                 8.1982
 Frc consts  --      0.3249                 0.5464                 2.5100
 IR Inten    --     69.6233                 6.3425                 7.3982

                      4                      5                      6
                     A"                     A'                     A'
 Frequencies --    818.3480               934.5961               975.2777
 Red. masses --      1.3609                 4.3977                 5.1019
 Frc consts  --      0.5370                 2.2632                 2.8592
 IR Inten    --     16.6929                 4.4558                 1.4315

                      7                      8                      9
                     A'                     A'                     A'
 Frequencies --   1020.0498              1030.9536              1116.3917
 Red. masses --      6.0306                 3.4670                 1.8978
 Frc consts  --      3.6970                 2.1711                 1.3936
 IR Inten    --     12.6629                27.4470                13.3750

                     10                     11                     12
                     A'                     A'                     A'
 Frequencies --   1212.7928              1238.6373              1409.8233
 Red. masses --      2.4883                 8.5633                 3.2459
 Frc consts  --      2.1564                 7.7407                 3.8012
 IR Inten    --      8.2369                 4.9110                 7.6857

                     13                     14                     15
                     A'                     A'                     A'
 Frequencies --   1447.8759              3220.8233              3569.2312
 Red. masses --      3.5642                 1.0994                 1.0828
 Frc consts  --      4.4023                 6.7198                 8.1276
 IR Inten    --     13.1632                 0.8420                63.9061

 - Thermochemistry -
 -------------------
 Temperature   298.150 Kelvin.  Pressure   1.00000 Atm.
 Atom     1 has atomic number  6 and mass  12.00000

 Molecular mass:    70.02795 amu.
 Principal axes and moments of inertia in atomic units:
                           1         2         3
     Eigenvalues --   173.49374 176.77127 350.26501
           X            0.81993   0.57247   0.00000
           Y           -0.57247   0.81993   0.00000
           Z            0.00000   0.00000   1.00000
 This molecule is an asymmetric top.
 Rotational symmetry number  1.
 Rotational temperatures (Kelvin)      0.49923     0.48998     0.24728
 Rotational constants (GHZ):          10.40234    10.20947     5.15250
 Zero-point vibrational energy     119364.7 (Joules/Mol)
                                   28.52885 (Kcal/Mol)
 Warning -- explicit consideration of   1 degrees of freedom as
           vibrations may cause significant error
 Vibrational temperatures:    815.82   969.05  1037.17  1177.42  1344.67
          (Kelvin)           1403.21  1467.62  1483.31  1606.24  1744.94
                             1782.12  2028.42  2083.17  4634.04  5135.32

 Zero-point correction=                           0.045464 (Hartree/Particle)
 Thermal correction to Energy=                    0.048998
 Thermal correction to Enthalpy=                  0.049943
 Thermal correction to Gibbs Free Energy=         0.019331
 Sum of electronic and zero-point Energies=           -257.950279
 Sum of electronic and thermal Energies=              -257.946744
 Sum of electronic and thermal Enthalpies=            -257.945800
 Sum of electronic and thermal Free Energies=         -257.976411

                     E (Thermal)             CV                S
                      KCal/Mol        Cal/Mol-Kelvin    Cal/Mol-Kelvin
 Total                   30.747             11.752             64.428
 Electronic               0.000              0.000              0.000
 Translational            0.889              2.981             38.656
 Rotational               0.889              2.981             23.889
 Vibrational             28.969              5.790              1.883
 Vibration     1          0.923              1.103              0.510

 Optimization completed.
    -- Stationary point found.
 Normal termination of Gaussian 09 at Mon Dec 16 15:00:51 2013.
