 Gaussian 09, Revision D.01,
 Gaussian 09:  EM64L-G09RevD.01 24-Apr-2013

 ---------------------------------
 #PBEPBE/cc-pVTZ opt=z-matrix freq
 ---------------------------------

 ------------------------------------------------------------------
 1H-tetrazole CH2N4 casno=288948 state=1 config=1 method=61 basis=6
 ------------------------------------------------------------------
 Symbolic Z-matrix:
 Charge =  0 Multiplicity = 1

 SCF Done:  E(RPBE-PBE) =  -258.065096656     A.U. after   15 cycles
 SCF Done:  E(RPBE-PBE) =  -258.070654636     A.U. after   12 cycles
 SCF Done:  E(RPBE-PBE) =  -258.070793291     A.U. after   12 cycles
 SCF Done:  E(RPBE-PBE) =  -258.070805899     A.U. after   11 cycles
 SCF Done:  E(RPBE-PBE) =  -258.068670918     A.U. after   12 cycles
 SCF Done:  E(RPBE-PBE) =  -258.070826810     A.U. after    9 cycles
 SCF Done:  E(RPBE-PBE) =  -258.070840910     A.U. after    9 cycles
 SCF Done:  E(RPBE-PBE) =  -258.070726983     A.U. after   11 cycles
 SCF Done:  E(RPBE-PBE) =  -258.070842582     A.U. after    8 cycles
 SCF Done:  E(RPBE-PBE) =  -258.070845326     A.U. after    8 cycles
 SCF Done:  E(RPBE-PBE) =  -258.070846351     A.U. after    9 cycles
 SCF Done:  E(RPBE-PBE) =  -258.070846768     A.U. after    8 cycles
 SCF Done:  E(RPBE-PBE) =  -258.070846915     A.U. after    8 cycles
 SCF Done:  E(RPBE-PBE) =  -258.070846859     A.U. after    8 cycles
 SCF Done:  E(RPBE-PBE) =  -258.070847050     A.U. after    7 cycles
 SCF Done:  E(RPBE-PBE) =  -258.070847051     A.U. after    6 cycles
 SCF Done:  E(RPBE-PBE) =  -258.070847040     A.U. after    6 cycles
 SCF Done:  E(RPBE-PBE) =  -258.070847051     A.U. after    5 cycles
 SCF Done:  E(RPBE-PBE) =  -258.070847051     A.U. after    5 cycles
 Optimization completed.
    -- Stationary point found.
 Normal termination of Gaussian 09 at Mon Nov 25 17:39:20 2013.

 --------------------------------------------------------------------
 #P Geom=AllCheck Guess=TCheck SCRF=Check GenChk RPBEPBE/CC-pVTZ Freq
 --------------------------------------------------------------------

 Structure from the checkpoint file:  "/tmp/rdj3/g09-31683/Gau-17368.chk"
 ------------------------------------------------------------------
 1H-tetrazole CH2N4 casno=288948 state=1 config=1 method=61 basis=6
 ------------------------------------------------------------------
 Charge =  0 Multiplicity = 1

                         Standard orientation:
 ---------------------------------------------------------------------
 Center     Atomic      Atomic             Coordinates (Angstroms)
 Number     Number       Type             X           Y           Z
 ---------------------------------------------------------------------
      1          6           0        1.070690    0.237369    0.000000
      2          7           0        0.000000    1.058203    0.000000
      3          7           0       -1.126559    0.303695    0.000000
      4          7           0       -0.725099   -0.930482    0.000000
      5          7           0        0.641939   -1.011887    0.000000
      6          1           0        2.103258    0.567687    0.000000
      7          1           0       -0.059368    2.071394    0.000000
 ---------------------------------------------------------------------

 SCF Done:  E(RPBE-PBE) =  -258.070847051     A.U. after    1 cycles

 The electronic state is 1-A'.
 Alpha  occ. eigenvalues --  -14.10125 -14.06376 -14.04753 -14.02143  -9.97645
 Alpha  occ. eigenvalues --   -1.05400  -0.86941  -0.81862  -0.62169  -0.60911
 Alpha  occ. eigenvalues --   -0.54385  -0.45234  -0.45141  -0.33394  -0.30211
 Alpha  occ. eigenvalues --   -0.28300  -0.26387  -0.24967
 Alpha virt. eigenvalues --   -0.06346  -0.03181  -0.00741   0.03770   0.10963
 Alpha virt. eigenvalues --    0.12305   0.14421   0.19807   0.24295   0.24645
 Alpha virt. eigenvalues --    0.31234   0.32674   0.35476   0.37908   0.38668

 Mulliken charges:
               1
     1  C   -0.014695
     2  N    0.016773
     3  N   -0.079731
     4  N   -0.073619
     5  N   -0.139153
     6  H    0.125068
     7  H    0.165357
 Sum of Mulliken charges =   0.00000

 Dipole moment (field-independent basis, Debye):
    X=              2.3590    Y=              4.5932    Z=              0.0000  Tot=              5.1636
 Quadrupole moment (field-independent basis, Debye-Ang):
   XX=            -28.9653   YY=            -26.3340   ZZ=            -28.3486
   XY=              1.7733   XZ=              0.0000   YZ=              0.0000

  Exact polarizability:  43.114   0.952  42.496   0.000   0.000  21.154
 Approx polarizability:  89.713   0.594  94.846   0.000   0.000  37.332

                      1                      2                      3
                     A"                     A"                     A"
 Frequencies --    569.2495               673.7746               722.1064
 Red. masses --      1.6862                 2.0405                 8.1563
 Frc consts  --      0.3219                 0.5458                 2.5058
 IR Inten    --     71.3350                 5.3698                 7.6807

                      4                      5                      6
                     A"                     A'                     A'
 Frequencies --    821.6749               926.3275               969.7304
 Red. masses --      1.3831                 4.9155                 4.6215
 Frc consts  --      0.5502                 2.4851                 2.5606
 IR Inten    --     20.7319                 5.7116                 3.0967

                      7                      8                      9
                     A'                     A'                     A'
 Frequencies --    998.5965              1020.8403              1110.4714
 Red. masses --      7.7644                 3.1893                 1.9756
 Frc consts  --      4.5618                 1.9582                 1.4354
 IR Inten    --     10.2307                26.0410                15.4338

                     10                     11                     12
                     A'                     A'                     A'
 Frequencies --   1207.0297              1231.4567              1402.4023
 Red. masses --      2.4719                 7.5741                 3.1988
 Frc consts  --      2.1218                 6.7674                 3.7066
 IR Inten    --      8.7896                 3.9923                 7.1761

                     13                     14                     15
                     A'                     A'                     A'
 Frequencies --   1445.2085              3204.6831              3551.6200
 Red. masses --      3.3948                 1.0997                 1.0830
 Frc consts  --      4.1776                 6.6543                 8.0487
 IR Inten    --     12.7761                 0.8449                63.0484

 - Thermochemistry -
 -------------------
 Temperature   298.150 Kelvin.  Pressure   1.00000 Atm.
 Atom     1 has atomic number  6 and mass  12.00000

 Molecular mass:    70.02795 amu.
 Principal axes and moments of inertia in atomic units:
                           1         2         3
     Eigenvalues --   172.93649 176.04602 348.98251
           X            0.85525   0.51821   0.00000
           Y           -0.51821   0.85525   0.00000
           Z            0.00000   0.00000   1.00000
 This molecule is an asymmetric top.
 Rotational symmetry number  1.
 Rotational temperatures (Kelvin)      0.50084     0.49200     0.24819
 Rotational constants (GHZ):          10.43586    10.25153     5.17144
 Zero-point vibrational energy     118760.3 (Joules/Mol)
                                   28.38439 (Kcal/Mol)
 Warning -- explicit consideration of   1 degrees of freedom as
           vibrations may cause significant error
 Vibrational temperatures:    819.02   969.41  1038.95  1182.21  1332.78
          (Kelvin)           1395.22  1436.76  1468.76  1597.72  1736.64
                             1771.79  2017.74  2079.33  4610.82  5109.98

 Zero-point correction=                           0.045233 (Hartree/Particle)
 Thermal correction to Energy=                    0.048774
 Thermal correction to Enthalpy=                  0.049718
 Thermal correction to Gibbs Free Energy=         0.019105
 Sum of electronic and zero-point Energies=           -258.025614
 Sum of electronic and thermal Energies=              -258.022073
 Sum of electronic and thermal Enthalpies=            -258.021129
 Sum of electronic and thermal Free Energies=         -258.051742

                     E (Thermal)             CV                S
                      KCal/Mol        Cal/Mol-Kelvin    Cal/Mol-Kelvin
 Total                   30.606             11.806             64.430
 Electronic               0.000              0.000              0.000
 Translational            0.889              2.981             38.656
 Rotational               0.889              2.981             23.878
 Vibrational             28.828              5.844              1.896
 Vibration     1          0.925              1.098              0.506

 Normal termination of Gaussian 09 at Mon Nov 25 17:40:28 2013.
