 Gaussian 09, Revision D.01,
 Gaussian 09:  EM64L-G09RevD.01 24-Apr-2013

 --------------------------------
 #PBEPBE/6-31G* opt=z-matrix freq
 --------------------------------

 ------------------------------------------------------------------
 1H-tetrazole CH2N4 casno=288948 state=1 config=1 method=61 basis=1
 ------------------------------------------------------------------
 Symbolic Z-matrix:
 Charge =  0 Multiplicity = 1

 SCF Done:  E(RPBE-PBE) =  -257.971531169     A.U. after   15 cycles
 SCF Done:  E(RPBE-PBE) =  -257.979347712     A.U. after   14 cycles
 SCF Done:  E(RPBE-PBE) =  -257.979553931     A.U. after   13 cycles
 SCF Done:  E(RPBE-PBE) =  -257.979218325     A.U. after   13 cycles
 SCF Done:  E(RPBE-PBE) =  -257.979566504     A.U. after   10 cycles
 SCF Done:  E(RPBE-PBE) =  -257.979571770     A.U. after    9 cycles
 SCF Done:  E(RPBE-PBE) =  -257.979571724     A.U. after    9 cycles
 SCF Done:  E(RPBE-PBE) =  -257.979572420     A.U. after    8 cycles
 SCF Done:  E(RPBE-PBE) =  -257.979572419     A.U. after    8 cycles
 SCF Done:  E(RPBE-PBE) =  -257.979572500     A.U. after    7 cycles
 SCF Done:  E(RPBE-PBE) =  -257.979557432     A.U. after   10 cycles
 SCF Done:  E(RPBE-PBE) =  -257.975658846     A.U. after   14 cycles
 SCF Done:  E(RPBE-PBE) =  -257.976670353     A.U. after   15 cycles
 SCF Done:  E(RPBE-PBE) =  -257.977151834     A.U. after   15 cycles
 SCF Done:  E(RPBE-PBE) =  -257.979572500     A.U. after    8 cycles
 SCF Done:  E(RPBE-PBE) =  -257.979544596     A.U. after   11 cycles
 SCF Done:  E(RPBE-PBE) =  -257.979572504     A.U. after    8 cycles
 Optimization completed.
    -- Stationary point found.
 Normal termination of Gaussian 09 at Mon Nov 25 17:28:31 2013.

 ---------------------------------------------------------------------
 #P Geom=AllCheck Guess=TCheck SCRF=Check GenChk RPBEPBE/6-31G(d) Freq
 ---------------------------------------------------------------------

 Structure from the checkpoint file:  "/tmp/rdj3/g09-31683/Gau-4550.chk"
 ------------------------------------------------------------------
 1H-tetrazole CH2N4 casno=288948 state=1 config=1 method=61 basis=1
 ------------------------------------------------------------------
 Charge =  0 Multiplicity = 1

                         Standard orientation:
 ---------------------------------------------------------------------
 Center     Atomic      Atomic             Coordinates (Angstroms)
 Number     Number       Type             X           Y           Z
 ---------------------------------------------------------------------
      1          6           0        1.074952    0.238403    0.000000
      2          7           0        0.000000    1.061149    0.000000
      3          7           0       -1.132111    0.306357    0.000000
      4          7           0       -0.726054   -0.934242    0.000000
      5          7           0        0.644145   -1.016073    0.000000
      6          1           0        2.110748    0.570950    0.000000
      7          1           0       -0.062318    2.078298    0.000000
 ---------------------------------------------------------------------

 SCF Done:  E(RPBE-PBE) =  -257.979572504     A.U. after    1 cycles

 The electronic state is 1-A'.
 Alpha  occ. eigenvalues --  -14.11850 -14.07737 -14.06023 -14.03475  -9.98966
 Alpha  occ. eigenvalues --   -1.04722  -0.86471  -0.81306  -0.61817  -0.60309
 Alpha  occ. eigenvalues --   -0.53889  -0.44835  -0.44237  -0.32628  -0.29433
 Alpha  occ. eigenvalues --   -0.27534  -0.25716  -0.24179
 Alpha virt. eigenvalues --   -0.05622  -0.02278   0.02627   0.07495   0.13508
 Alpha virt. eigenvalues --    0.16027   0.22905   0.28321   0.34953   0.46864
 Alpha virt. eigenvalues --    0.48305   0.54446   0.56023   0.58772   0.61757

 Mulliken charges:
               1
     1  C    0.243088
     2  N   -0.399548
     3  N   -0.039953
     4  N   -0.083122
     5  N   -0.287417
     6  H    0.204815
     7  H    0.362137
 Sum of Mulliken charges =   0.00000

 Dipole moment (field-independent basis, Debye):
    X=              2.4057    Y=              4.6460    Z=              0.0000  Tot=              5.2319
 Quadrupole moment (field-independent basis, Debye-Ang):
   XX=            -28.5476   YY=            -25.8910   ZZ=            -28.1971
   XY=              1.7292   XZ=              0.0000   YZ=              0.0000

  Exact polarizability:  39.002   1.058  38.551   0.000   0.000  15.787
 Approx polarizability:  84.408   0.050  89.966   0.000   0.000  27.780

                      1                      2                      3
                     A"                     A"                     A"
 Frequencies --    555.1872               672.2514               716.4597
 Red. masses --      1.7904                 2.0023                 8.0239
 Frc consts  --      0.3251                 0.5331                 2.4267
 IR Inten    --     81.8576                 8.6358                 7.3862

                      4                      5                      6
                     A"                     A'                     A'
 Frequencies --    799.1838               932.6610               973.6783
 Red. masses --      1.3402                 4.5913                 5.1634
 Frc consts  --      0.5043                 2.3531                 2.8842
 IR Inten    --     22.8694                 4.5432                 1.6168

                      7                      8                      9
                     A'                     A'                     A'
 Frequencies --   1015.5955              1031.5960              1118.4943
 Red. masses --      5.9126                 3.7952                 1.8424
 Frc consts  --      3.5931                 2.3796                 1.3580
 IR Inten    --     13.5254                26.7284                13.4396

                     10                     11                     12
                     A'                     A'                     A'
 Frequencies --   1217.3358              1236.6255              1418.7795
 Red. masses --      2.6682                 6.9005                 3.3141
 Frc consts  --      2.3297                 6.2173                 3.9304
 IR Inten    --     10.9545                 4.1873                 7.7901

                     13                     14                     15
                     A'                     A'                     A'
 Frequencies --   1455.6725              3235.9324              3554.6041
 Red. masses --      3.2935                 1.0995                 1.0830
 Frc consts  --      4.1118                 6.7831                 8.0623
 IR Inten    --     14.8041                 0.5905                57.0851

 - Thermochemistry -
 -------------------
 Temperature   298.150 Kelvin.  Pressure   1.00000 Atm.
 Atom     1 has atomic number  6 and mass  12.00000

 Molecular mass:    70.02795 amu.
 Principal axes and moments of inertia in atomic units:
                           1         2         3
     Eigenvalues --   174.07669 177.55331 351.63000
           X            0.84433   0.53582   0.00000
           Y           -0.53582   0.84433   0.00000
           Z            0.00000   0.00000   1.00000
 This molecule is an asymmetric top.
 Rotational symmetry number  1.
 Rotational temperatures (Kelvin)      0.49756     0.48782     0.24632
 Rotational constants (GHZ):          10.36751    10.16450     5.13250
 Zero-point vibrational energy     119232.1 (Joules/Mol)
                                   28.49716 (Kcal/Mol)
 Warning -- explicit consideration of   1 degrees of freedom as
           vibrations may cause significant error
 Vibrational temperatures:    798.79   967.22  1030.82  1149.85  1341.89
          (Kelvin)           1400.90  1461.21  1484.23  1609.26  1751.47
                             1779.23  2041.30  2094.39  4655.78  5114.28

 Zero-point correction=                           0.045413 (Hartree/Particle)
 Thermal correction to Energy=                    0.048963
 Thermal correction to Enthalpy=                  0.049907
 Thermal correction to Gibbs Free Energy=         0.019268
 Sum of electronic and zero-point Energies=           -257.934159
 Sum of electronic and thermal Energies=              -257.930609
 Sum of electronic and thermal Enthalpies=            -257.929665
 Sum of electronic and thermal Free Energies=         -257.960304

                     E (Thermal)             CV                S
                      KCal/Mol        Cal/Mol-Kelvin    Cal/Mol-Kelvin
 Total                   30.725             11.819             64.485
 Electronic               0.000              0.000              0.000
 Translational            0.889              2.981             38.656
 Rotational               0.889              2.981             23.901
 Vibrational             28.947              5.857              1.929
 Vibration     1          0.911              1.128              0.534

 Normal termination of Gaussian 09 at Mon Nov 25 17:28:39 2013.
