 Gaussian 09, Revision D.01,
 Gaussian 09:  EM64L-G09RevD.01 24-Apr-2013

 ------------------------
 #PBEPBE/6-311G* opt freq
 ------------------------

 ------------------------------------------------------------------
 1H-tetrazole CH2N4 casno=288948 state=1 config=1 method=61 basis=7
 ------------------------------------------------------------------
 Symbolic Z-matrix:
 Charge =  0 Multiplicity = 1

 SCF Done:  E(RPBE-PBE) =  -258.031169610     A.U. after   15 cycles
 SCF Done:  E(RPBE-PBE) =  -258.037583388     A.U. after   13 cycles
 SCF Done:  E(RPBE-PBE) =  -258.037752142     A.U. after   10 cycles
 SCF Done:  E(RPBE-PBE) =  -258.037763357     A.U. after    9 cycles
 SCF Done:  E(RPBE-PBE) =  -258.037767915     A.U. after    9 cycles
 SCF Done:  E(RPBE-PBE) =  -258.037768764     A.U. after    8 cycles
 Optimization completed.
    -- Stationary point found.
 Normal termination of Gaussian 09 at Mon Dec 16 15:02:03 2013.

 ----------------------------------------------------------------------
 #P Geom=AllCheck Guess=TCheck SCRF=Check GenChk RPBEPBE/6-311G(d) Freq
 ----------------------------------------------------------------------

 Structure from the checkpoint file:  "/tmp/rdj3/g09-20196/Gau-22243.chk"
 ------------------------------------------------------------------
 1H-tetrazole CH2N4 casno=288948 state=1 config=1 method=61 basis=7
 ------------------------------------------------------------------
 Charge =  0 Multiplicity = 1

                         Standard orientation:
 ---------------------------------------------------------------------
 Center     Atomic      Atomic             Coordinates (Angstroms)
 Number     Number       Type             X           Y           Z
 ---------------------------------------------------------------------
      1          6           0        1.072524    0.236833    0.000000
      2          7           0        0.000000    1.060186    0.000000
      3          7           0       -1.129354    0.304118    0.000000
      4          7           0       -0.726045   -0.931359    0.000000
      5          7           0        0.644017   -1.013317    0.000000
      6          1           0        2.107175    0.567333    0.000000
      7          1           0       -0.062641    2.074270    0.000000
 ---------------------------------------------------------------------

 SCF Done:  E(RPBE-PBE) =  -258.037768764     A.U. after    1 cycles

 The electronic state is 1-A'.
 Alpha  occ. eigenvalues --  -14.09232 -14.05287 -14.03553 -14.01029  -9.97089
 Alpha  occ. eigenvalues --   -1.05540  -0.87040  -0.82006  -0.62341  -0.60931
 Alpha  occ. eigenvalues --   -0.54536  -0.45362  -0.44932  -0.33182  -0.30018
 Alpha  occ. eigenvalues --   -0.28207  -0.26173  -0.24705
 Alpha virt. eigenvalues --   -0.06153  -0.02874  -0.00431   0.03999   0.11669
 Alpha virt. eigenvalues --    0.14527   0.18639   0.22373   0.27543   0.33663
 Alpha virt. eigenvalues --    0.35384   0.39033   0.44868   0.48029   0.51886

 Mulliken charges:
               1
     1  C    0.123272
     2  N   -0.415319
     3  N   -0.010797
     4  N   -0.089302
     5  N   -0.221760
     6  H    0.248374
     7  H    0.365532
 Sum of Mulliken charges =   0.00000

 Dipole moment (field-independent basis, Debye):
    X=              2.4181    Y=              4.7030    Z=              0.0000  Tot=              5.2883
 Quadrupole moment (field-independent basis, Debye-Ang):
   XX=            -28.9135   YY=            -26.3051   ZZ=            -28.4101
   XY=              1.7691   XZ=              0.0000   YZ=              0.0000

  Exact polarizability:  40.378   1.073  39.923   0.000   0.000  17.725
 Approx polarizability:  85.225   0.359  90.939   0.000   0.000  30.411

                      1                      2                      3
                     A"                     A"                     A"
 Frequencies --    581.3221               677.8000               718.9595
 Red. masses --      1.9576                 1.8231                 7.4710
 Frc consts  --      0.3898                 0.4935                 2.2753
 IR Inten    --     80.0016                12.4031                 8.6481

                      4                      5                      6
                     A"                     A'                     A'
 Frequencies --    802.7540               925.3931               975.3422
 Red. masses --      1.3595                 4.9196                 4.9485
 Frc consts  --      0.5162                 2.4822                 2.7736
 IR Inten    --     24.9059                 6.4767                 2.8574

                      7                      8                      9
                     A'                     A'                     A'
 Frequencies --    999.4219              1027.0003              1112.9649
 Red. masses --      7.3666                 3.4167                 1.9344
 Frc consts  --      4.3352                 2.1233                 1.4118
 IR Inten    --     11.3820                25.7175                15.4017

                     10                     11                     12
                     A'                     A'                     A'
 Frequencies --   1215.5228              1234.0243              1414.5294
 Red. masses --      2.5539                 7.5597                 3.4052
 Frc consts  --      2.2232                 6.7827                 4.0143
 IR Inten    --     10.3674                 5.1106                 7.6205

                     13                     14                     15
                     A'                     A'                     A'
 Frequencies --   1459.0626              3211.0561              3566.3291
 Red. masses --      2.9072                 1.0999                 1.0829
 Frc consts  --      3.6464                 6.6816                 8.1150
 IR Inten    --     15.1341                 0.2753                50.0489

 - Thermochemistry -
 -------------------
 Temperature   298.150 Kelvin.  Pressure   1.00000 Atm.
 Atom     1 has atomic number  6 and mass  12.00000

 Molecular mass:    70.02795 amu.
 Principal axes and moments of inertia in atomic units:
                           1         2         3
     Eigenvalues --   173.33839 176.87012 350.20852
           X            0.86119   0.50829   0.00000
           Y           -0.50829   0.86119   0.00000
           Z            0.00000   0.00000   1.00000
 This molecule is an asymmetric top.
 Rotational symmetry number  1.
 Rotational temperatures (Kelvin)      0.49968     0.48970     0.24732
 Rotational constants (GHZ):          10.41166    10.20377     5.15333
 Zero-point vibrational energy     119156.9 (Joules/Mol)
                                   28.47919 (Kcal/Mol)
 Warning -- explicit consideration of   1 degrees of freedom as
           vibrations may cause significant error
 Vibrational temperatures:    836.39   975.20  1034.42  1154.98  1331.43
          (Kelvin)           1403.30  1437.94  1477.62  1601.31  1748.86
                             1775.48  2035.19  2099.26  4619.99  5131.15

 Zero-point correction=                           0.045384 (Hartree/Particle)
 Thermal correction to Energy=                    0.048919
 Thermal correction to Enthalpy=                  0.049863
 Thermal correction to Gibbs Free Energy=         0.019254
 Sum of electronic and zero-point Energies=           -257.992384
 Sum of electronic and thermal Energies=              -257.988850
 Sum of electronic and thermal Enthalpies=            -257.987906
 Sum of electronic and thermal Free Energies=         -258.018515

                     E (Thermal)             CV                S
                      KCal/Mol        Cal/Mol-Kelvin    Cal/Mol-Kelvin
 Total                   30.697             11.778             64.422
 Electronic               0.000              0.000              0.000
 Translational            0.889              2.981             38.656
 Rotational               0.889              2.981             23.889
 Vibrational             28.920              5.816              1.878
 Vibration     1          0.938              1.072              0.483

 Optimization completed.
    -- Stationary point found.
 Normal termination of Gaussian 09 at Mon Dec 16 15:02:12 2013.
