 Gaussian 09, Revision D.01,
 Gaussian 09:  EM64L-G09RevD.01 24-Apr-2013

 ----------------------
 #PBEPBE/6-31G opt freq
 ----------------------

 ------------------------------------------------------------------
 1H-tetrazole CH2N4 casno=288948 state=1 config=1 method=61 basis=9
 ------------------------------------------------------------------
 Symbolic Z-matrix:
 Charge =  0 Multiplicity = 1

 SCF Done:  E(RPBE-PBE) =  -257.848329842     A.U. after   16 cycles
 SCF Done:  E(RPBE-PBE) =  -257.867903193     A.U. after   16 cycles
 SCF Done:  E(RPBE-PBE) =  -257.868837648     A.U. after   15 cycles
 SCF Done:  E(RPBE-PBE) =  -257.869062181     A.U. after   13 cycles
 SCF Done:  E(RPBE-PBE) =  -257.869118216     A.U. after   10 cycles
 SCF Done:  E(RPBE-PBE) =  -257.869123832     A.U. after   10 cycles
 SCF Done:  E(RPBE-PBE) =  -257.869125152     A.U. after    9 cycles
 Optimization completed.
    -- Stationary point found.
 Normal termination of Gaussian 09 at Mon Dec 16 15:02:25 2013.

 ------------------------------------------------------------------
 #P Geom=AllCheck Guess=TCheck SCRF=Check GenChk RPBEPBE/6-31G Freq
 ------------------------------------------------------------------

 Structure from the checkpoint file:  "/tmp/rdj3/g09-20196/Gau-22905.chk"
 ------------------------------------------------------------------
 1H-tetrazole CH2N4 casno=288948 state=1 config=1 method=61 basis=9
 ------------------------------------------------------------------
 Charge =  0 Multiplicity = 1

                         Standard orientation:
 ---------------------------------------------------------------------
 Center     Atomic      Atomic             Coordinates (Angstroms)
 Number     Number       Type             X           Y           Z
 ---------------------------------------------------------------------
      1          6           0        1.089203    0.258096    0.000000
      2          7           0        0.000000    1.080732    0.000000
      3          7           0       -1.164458    0.299964    0.000000
      4          7           0       -0.741613   -0.963076    0.000000
      5          7           0        0.679087   -1.022255    0.000000
      6          1           0        2.119720    0.590046    0.000000
      7          1           0       -0.066049    2.093821    0.000000
 ---------------------------------------------------------------------

 SCF Done:  E(RPBE-PBE) =  -257.869125152     A.U. after    1 cycles

 The electronic state is 1-A'.
 Alpha  occ. eigenvalues --  -14.12131 -14.09411 -14.07582 -14.05071 -10.00097
 Alpha  occ. eigenvalues --   -1.06665  -0.87896  -0.84023  -0.62975  -0.61747
 Alpha  occ. eigenvalues --   -0.55210  -0.45906  -0.44710  -0.32514  -0.30282
 Alpha  occ. eigenvalues --   -0.28880  -0.26270  -0.24960
 Alpha virt. eigenvalues --   -0.07798  -0.04322   0.02013   0.05407   0.10550
 Alpha virt. eigenvalues --    0.13604   0.18197   0.25895   0.30751   0.47695
 Alpha virt. eigenvalues --    0.48468   0.55898   0.59657   0.60617   0.61974

 Mulliken charges:
               1
     1  C    0.278054
     2  N   -0.522344
     3  N    0.013815
     4  N   -0.092895
     5  N   -0.271779
     6  H    0.226258
     7  H    0.368890
 Sum of Mulliken charges =   0.00000

 Dipole moment (field-independent basis, Debye):
    X=              2.6140    Y=              5.0116    Z=              0.0000  Tot=              5.6523
 Quadrupole moment (field-independent basis, Debye-Ang):
   XX=            -29.6447   YY=            -27.0672   ZZ=            -28.7043
   XY=              1.9882   XZ=              0.0000   YZ=              0.0000

  Exact polarizability:  39.492   1.110  39.178   0.000   0.000  14.117
 Approx polarizability:  88.624  -0.833  96.820   0.000   0.000  21.729

                      1                      2                      3
                     A"                     A"                     A"
 Frequencies --    639.9585               685.2847               696.8457
 Red. masses --      4.5624                 5.9817                 1.2228
 Frc consts  --      1.1009                 1.6551                 0.3498
 IR Inten    --     25.2720                 6.7343               122.6645

                      4                      5                      6
                     A'                     A"                     A'
 Frequencies --    782.2089               835.0918               863.0376
 Red. masses --      9.3172                 1.3707                 6.5511
 Frc consts  --      3.3588                 0.5632                 2.8749
 IR Inten    --      9.0369                22.1409                16.3252

                      7                      8                      9
                     A'                     A'                     A'
 Frequencies --    964.8690               993.5745              1093.8308
 Red. masses --      5.5717                 5.1615                 4.8768
 Frc consts  --      3.0561                 3.0021                 3.4379
 IR Inten    --      5.0867                 9.5555                 6.5099

                     10                     11                     12
                     A'                     A'                     A'
 Frequencies --   1129.3922              1193.9965              1361.5291
 Red. masses --      2.0085                 2.6244                 3.0913
 Frc consts  --      1.5094                 2.2044                 3.3763
 IR Inten    --     15.3163                 2.4234                 3.2567

                     13                     14                     15
                     A'                     A'                     A'
 Frequencies --   1419.7138              3285.9943              3606.9447
 Red. masses --      2.1021                 1.1008                 1.0841
 Frc consts  --      2.4963                 7.0034                 8.3097
 IR Inten    --     32.1418                 3.3542                69.4022

 - Thermochemistry -
 -------------------
 Temperature   298.150 Kelvin.  Pressure   1.00000 Atm.
 Atom     1 has atomic number  6 and mass  12.00000

 Molecular mass:    70.02795 amu.
 Principal axes and moments of inertia in atomic units:
                           1         2         3
     Eigenvalues --   180.95361 185.29611 366.24972
           X            0.98687   0.16153   0.00000
           Y           -0.16153   0.98687   0.00000
           Z            0.00000   0.00000   1.00000
 This molecule is an asymmetric top.
 Rotational symmetry number  1.
 Rotational temperatures (Kelvin)      0.47865     0.46743     0.23649
 Rotational constants (GHZ):           9.97350     9.73977     4.92762
 Zero-point vibrational energy     116948.6 (Joules/Mol)
                                   27.95138 (Kcal/Mol)
 Vibrational temperatures:    920.76   985.97  1002.60  1125.42  1201.51
          (Kelvin)           1241.72  1388.23  1429.53  1573.78  1624.94
                             1717.89  1958.93  2042.65  4727.81  5189.58

 Zero-point correction=                           0.044543 (Hartree/Particle)
 Thermal correction to Energy=                    0.048123
 Thermal correction to Enthalpy=                  0.049067
 Thermal correction to Gibbs Free Energy=         0.018342
 Sum of electronic and zero-point Energies=           -257.824582
 Sum of electronic and thermal Energies=              -257.821002
 Sum of electronic and thermal Enthalpies=            -257.820058
 Sum of electronic and thermal Free Energies=         -257.850783

                     E (Thermal)             CV                S
                      KCal/Mol        Cal/Mol-Kelvin    Cal/Mol-Kelvin
 Total                   30.198             12.202             64.665
 Electronic               0.000              0.000              0.000
 Translational            0.889              2.981             38.656
 Rotational               0.889              2.981             24.022
 Vibrational             28.420              6.240              1.987

 Optimization completed.
    -- Stationary point found.
 Normal termination of Gaussian 09 at Mon Dec 16 15:02:29 2013.
