 Gaussian 09, Revision D.01,
 Gaussian 09:  EM64L-G09RevD.01 24-Apr-2013

 -------------------------------------
 #PBEPBE/aug-cc-pVDZ opt=z-matrix freq
 -------------------------------------

 -------------------------------------------------------------------
 1H-tetrazole CH2N4 casno=288948 state=1 config=1 method=61 basis=17
 -------------------------------------------------------------------
 Symbolic Z-matrix:
 Charge =  0 Multiplicity = 1

 SCF Done:  E(RPBE-PBE) =  -258.016143503     A.U. after   12 cycles
 SCF Done:  E(RPBE-PBE) =  -258.024216476     A.U. after   11 cycles
 SCF Done:  E(RPBE-PBE) =  -258.024417254     A.U. after   11 cycles
 SCF Done:  E(RPBE-PBE) =  -258.024453013     A.U. after   10 cycles
 SCF Done:  E(RPBE-PBE) =  -258.024378353     A.U. after   11 cycles
 SCF Done:  E(RPBE-PBE) =  -258.024455571     A.U. after    8 cycles
 SCF Done:  E(RPBE-PBE) =  -258.024460510     A.U. after    9 cycles
 SCF Done:  E(RPBE-PBE) =  -258.024336317     A.U. after   10 cycles
 SCF Done:  E(RPBE-PBE) =  -258.019233590     A.U. after   12 cycles
 SCF Done:  E(RPBE-PBE) =  -258.024460603     A.U. after    6 cycles
 SCF Done:  E(RPBE-PBE) =  -258.024431746     A.U. after   10 cycles
 SCF Done:  E(RPBE-PBE) =  -258.018932057     A.U. after   12 cycles
 SCF Done:  E(RPBE-PBE) =  -258.024354750     A.U. after   11 cycles
 SCF Done:  E(RPBE-PBE) =  -258.017703225     A.U. after   12 cycles
 SCF Done:  E(RPBE-PBE) =  -258.024460880     A.U. after    6 cycles
 SCF Done:  E(RPBE-PBE) =  -258.023982580     A.U. after   11 cycles
 SCF Done:  E(RPBE-PBE) =  -258.024460866     A.U. after    5 cycles
 SCF Done:  E(RPBE-PBE) =  -258.024461464     A.U. after    9 cycles
 Optimization completed.
    -- Stationary point found.
 Normal termination of Gaussian 09 at Mon Nov 25 16:57:31 2013.

 ----------------------------------------------------------------------
 #P Geom=AllCheck Guess=TCheck SCRF=Check GenChk RPBEPBE/Aug-CC-pVDZ Fr
 eq
 ----------------------------------------------------------------------

 Structure from the checkpoint file:  "/tmp/rdj3/g09-31683/Gau-31739.chk"
 -------------------------------------------------------------------
 1H-tetrazole CH2N4 casno=288948 state=1 config=1 method=61 basis=17
 -------------------------------------------------------------------
 Charge =  0 Multiplicity = 1

                         Standard orientation:
 ---------------------------------------------------------------------
 Center     Atomic      Atomic             Coordinates (Angstroms)
 Number     Number       Type             X           Y           Z
 ---------------------------------------------------------------------
      1          6           0        1.075747    0.238559    0.000000
      2          7           0        0.000000    1.061670    0.000000
      3          7           0       -1.130872    0.307715    0.000000
      4          7           0       -0.726750   -0.934889    0.000000
      5          7           0        0.641851   -1.017496    0.000000
      6          1           0        2.115119    0.570132    0.000000
      7          1           0       -0.059204    2.079508    0.000000
 ---------------------------------------------------------------------

 SCF Done:  E(RPBE-PBE) =  -258.024461464     A.U. after    1 cycles

 The electronic state is 1-A'.
 Alpha  occ. eigenvalues --  -14.11898 -14.08231 -14.06690 -14.04153  -9.99288
 Alpha  occ. eigenvalues --   -1.05856  -0.87595  -0.82385  -0.62718  -0.61408
 Alpha  occ. eigenvalues --   -0.54699  -0.45653  -0.45356  -0.33948  -0.30667
 Alpha  occ. eigenvalues --   -0.28652  -0.27161  -0.25678
 Alpha virt. eigenvalues --   -0.07149  -0.04129  -0.03982  -0.00416   0.02431
 Alpha virt. eigenvalues --    0.03319   0.04495   0.05672   0.07025   0.07894
 Alpha virt. eigenvalues --    0.09275   0.09872   0.11086   0.11164   0.12895

 Mulliken charges:
               1
     1  C    0.820554
     2  N    0.076985
     3  N   -0.101730
     4  N   -0.258372
     5  N   -0.253728
     6  H   -0.205257
     7  H   -0.078451
 Sum of Mulliken charges =   0.00000

 Dipole moment (field-independent basis, Debye):
    X=              2.4662    Y=              4.6586    Z=              0.0000  Tot=              5.2711
 Quadrupole moment (field-independent basis, Debye-Ang):
   XX=            -29.4147   YY=            -26.8505   ZZ=            -28.9828
   XY=              1.8524   XZ=              0.0000   YZ=              0.0000

  Exact polarizability:  48.506   0.599  48.024   0.000   0.000  27.241
 Approx polarizability:  96.882   0.311 101.935   0.000   0.000  45.624

                      1                      2                      3
                     A"                     A"                     A"
 Frequencies --    580.3623               670.6177               716.5349
 Red. masses --      1.8004                 1.8821                 8.3079
 Frc consts  --      0.3573                 0.4987                 2.5131
 IR Inten    --     71.0068                 7.9737                 7.2755

                      4                      5                      6
                     A"                     A'                     A'
 Frequencies --    807.2942               930.7390               972.2552
 Red. masses --      1.3863                 4.0733                 5.3217
 Frc consts  --      0.5323                 2.0790                 2.9639
 IR Inten    --     22.0869                 3.8751                 1.2730

                      7                      8                      9
                     A'                     A'                     A'
 Frequencies --   1015.1169              1027.1031              1104.6044
 Red. masses --      4.7398                 3.8439                 1.9339
 Frc consts  --      2.8777                 2.3892                 1.3903
 IR Inten    --     14.9248                25.5879                12.4626

                     10                     11                     12
                     A'                     A'                     A'
 Frequencies --   1207.2037              1230.8866              1407.2621
 Red. masses --      2.5735                 8.4852                 3.4694
 Frc consts  --      2.2097                 7.5744                 4.0481
 IR Inten    --      7.1036                 4.6043                 7.5224

                     13                     14                     15
                     A'                     A'                     A'
 Frequencies --   1442.4981              3218.2641              3546.2652
 Red. masses --      3.3663                 1.1006                 1.0837
 Frc consts  --      4.1270                 6.7161                 8.0301
 IR Inten    --     12.8710                 1.4713                66.4217

 - Thermochemistry -
 -------------------
 Temperature   298.150 Kelvin.  Pressure   1.00000 Atm.
 Atom     1 has atomic number  6 and mass  12.00000

 Molecular mass:    70.02795 amu.
 Principal axes and moments of inertia in atomic units:
                           1         2         3
     Eigenvalues --   174.36817 177.48144 351.84961
           X            0.81867   0.57427   0.00000
           Y           -0.57427   0.81867   0.00000
           Z            0.00000   0.00000   1.00000
 This molecule is an asymmetric top.
 Rotational symmetry number  1.
 Rotational temperatures (Kelvin)      0.49673     0.48802     0.24617
 Rotational constants (GHZ):          10.35018    10.16862     5.12930
 Zero-point vibrational energy     118890.9 (Joules/Mol)
                                   28.41561 (Kcal/Mol)
 Warning -- explicit consideration of   1 degrees of freedom as
           vibrations may cause significant error
 Vibrational temperatures:    835.01   964.87  1030.93  1161.51  1339.12
          (Kelvin)           1398.86  1460.53  1477.77  1589.28  1736.89
                             1770.97  2024.73  2075.43  4630.36  5102.28

 Zero-point correction=                           0.045283 (Hartree/Particle)
 Thermal correction to Energy=                    0.048820
 Thermal correction to Enthalpy=                  0.049765
 Thermal correction to Gibbs Free Energy=         0.019145
 Sum of electronic and zero-point Energies=           -257.979178
 Sum of electronic and thermal Energies=              -257.975641
 Sum of electronic and thermal Enthalpies=            -257.974697
 Sum of electronic and thermal Free Energies=         -258.005317

                     E (Thermal)             CV                S
                      KCal/Mol        Cal/Mol-Kelvin    Cal/Mol-Kelvin
 Total                   30.635             11.793             64.445
 Electronic               0.000              0.000              0.000
 Translational            0.889              2.981             38.656
 Rotational               0.889              2.981             23.902
 Vibrational             28.858              5.831              1.886
 Vibration     1          0.937              1.074              0.485

 Normal termination of Gaussian 09 at Mon Nov 25 16:57:59 2013.
