 Gaussian 09, Revision D.01,
 Gaussian 09:  EM64L-G09RevD.01 24-Apr-2013

 -------------------------------
 #PBEPBE/3-21G opt=z-matrix freq
 -------------------------------

 ------------------------------------------------------------------
 1H-tetrazole CH2N4 casno=288948 state=1 config=1 method=61 basis=2
 ------------------------------------------------------------------
 Symbolic Z-matrix:
 Charge =  0 Multiplicity = 1

 SCF Done:  E(RPBE-PBE) =  -256.490509345     A.U. after   15 cycles
 SCF Done:  E(RPBE-PBE) =  -256.517317171     A.U. after   15 cycles
 SCF Done:  E(RPBE-PBE) =  -256.519686690     A.U. after   14 cycles
 SCF Done:  E(RPBE-PBE) =  -256.518009189     A.U. after   14 cycles
 SCF Done:  E(RPBE-PBE) =  -256.520131304     A.U. after   13 cycles
 SCF Done:  E(RPBE-PBE) =  -256.520207165     A.U. after   10 cycles
 SCF Done:  E(RPBE-PBE) =  -256.519749756     A.U. after   14 cycles
 SCF Done:  E(RPBE-PBE) =  -256.520223283     A.U. after   11 cycles
 SCF Done:  E(RPBE-PBE) =  -256.520230463     A.U. after    9 cycles
 SCF Done:  E(RPBE-PBE) =  -256.520117829     A.U. after   12 cycles
 SCF Done:  E(RPBE-PBE) =  -256.520233945     A.U. after    9 cycles
 SCF Done:  E(RPBE-PBE) =  -256.520235708     A.U. after    9 cycles
 SCF Done:  E(RPBE-PBE) =  -256.520236077     A.U. after    9 cycles
 SCF Done:  E(RPBE-PBE) =  -256.520202300     A.U. after   12 cycles
 SCF Done:  E(RPBE-PBE) =  -256.516081018     A.U. after   16 cycles
 SCF Done:  E(RPBE-PBE) =  -256.520236205     A.U. after    9 cycles
 SCF Done:  E(RPBE-PBE) =  -256.520082881     A.U. after   13 cycles
 SCF Done:  E(RPBE-PBE) =  -256.520236202     A.U. after    8 cycles
 Optimization completed.
    -- Stationary point found.
 Normal termination of Gaussian 09 at Mon Nov 25 17:30:40 2013.

 ------------------------------------------------------------------
 #P Geom=AllCheck Guess=TCheck SCRF=Check GenChk RPBEPBE/3-21G Freq
 ------------------------------------------------------------------

 Structure from the checkpoint file:  "/tmp/rdj3/g09-31683/Gau-9504.chk"
 ------------------------------------------------------------------
 1H-tetrazole CH2N4 casno=288948 state=1 config=1 method=61 basis=2
 ------------------------------------------------------------------
 Charge =  0 Multiplicity = 1

                         Standard orientation:
 ---------------------------------------------------------------------
 Center     Atomic      Atomic             Coordinates (Angstroms)
 Number     Number       Type             X           Y           Z
 ---------------------------------------------------------------------
      1          6           0        1.085182    0.265238    0.000000
      2          7           0        0.000000    1.093997    0.000000
      3          7           0       -1.186455    0.293130    0.000000
      4          7           0       -0.747333   -0.980674    0.000000
      5          7           0        0.711778   -1.023424    0.000000
      6          1           0        2.110954    0.613272    0.000000
      7          1           0       -0.067975    2.114104    0.000000
 ---------------------------------------------------------------------

 SCF Done:  E(RPBE-PBE) =  -256.520236202     A.U. after    1 cycles

 The electronic state is 1-A'.
 Alpha  occ. eigenvalues --  -14.04131 -14.01021 -13.99267 -13.96398  -9.93962
 Alpha  occ. eigenvalues --   -1.04106  -0.85983  -0.82917  -0.61361  -0.60605
 Alpha  occ. eigenvalues --   -0.54389  -0.44513  -0.43008  -0.31513  -0.28759
 Alpha  occ. eigenvalues --   -0.27711  -0.25512  -0.24095
 Alpha virt. eigenvalues --   -0.06789  -0.03048   0.03923   0.05377   0.12146
 Alpha virt. eigenvalues --    0.14589   0.19384   0.29963   0.31997   0.61230
 Alpha virt. eigenvalues --    0.64660   0.75015   0.78035   0.85486   0.94974

 Mulliken charges:
               1
     1  C    0.289747
     2  N   -0.500962
     3  N   -0.035188
     4  N   -0.078300
     5  N   -0.314913
     6  H    0.275255
     7  H    0.364361
 Sum of Mulliken charges =   0.00000

 Dipole moment (field-independent basis, Debye):
    X=              2.3551    Y=              4.7933    Z=              0.0000  Tot=              5.3406
 Quadrupole moment (field-independent basis, Debye-Ang):
   XX=            -28.9471   YY=            -26.1860   ZZ=            -28.6627
   XY=              1.9366   XZ=              0.0000   YZ=              0.0000

  Exact polarizability:  36.579   1.297  36.294   0.000   0.000  11.512
 Approx polarizability:  87.613  -1.558  98.688   0.000   0.000  18.020

                      1                      2                      3
                     A"                     A"                     A"
 Frequencies --    596.2154               651.1022               658.9215
 Red. masses --      2.4889                 1.4664                 8.0789
 Frc consts  --      0.5213                 0.3663                 2.0667
 IR Inten    --     91.9874                44.8971                11.0595

                      4                      5                      6
                     A'                     A'                     A"
 Frequencies --    731.3823               802.5771               866.3686
 Red. masses --     10.2113                 6.7069                 1.3725
 Frc consts  --      3.2183                 2.5453                 0.6070
 IR Inten    --      9.1909                13.2854                21.9469

                      7                      8                      9
                     A'                     A'                     A'
 Frequencies --    934.1957               970.3144              1016.8999
 Red. masses --      4.2697                 7.0509                 9.8946
 Frc consts  --      2.1954                 3.9113                 6.0285
 IR Inten    --      7.6754                 6.7837                 0.5385

                     10                     11                     12
                     A'                     A'                     A'
 Frequencies --   1107.4917              1163.9571              1313.5680
 Red. masses --      1.8673                 2.2437                 2.8868
 Frc consts  --      1.3494                 1.7910                 2.9348
 IR Inten    --     12.7668                 7.4670                 3.6950

                     13                     14                     15
                     A'                     A'                     A'
 Frequencies --   1371.2856              3245.5731              3484.5208
 Red. masses --      2.1549                 1.0983                 1.0844
 Frc consts  --      2.3875                 6.8163                 7.7575
 IR Inten    --     35.0199                 1.7289                67.6694

 - Thermochemistry -
 -------------------
 Temperature   298.150 Kelvin.  Pressure   1.00000 Atm.
 Atom     1 has atomic number  6 and mass  12.00000

 Molecular mass:    70.02795 amu.
 Principal axes and moments of inertia in atomic units:
                           1         2         3
     Eigenvalues --   184.51894 190.13733 374.65628
           X            0.98439   0.17599   0.00000
           Y           -0.17599   0.98439   0.00000
           Z            0.00000   0.00000   1.00000
 This molecule is an asymmetric top.
 Rotational symmetry number  1.
 Rotational temperatures (Kelvin)      0.46940     0.45553     0.23118
 Rotational constants (GHZ):           9.78079     9.49178     4.81706
 Zero-point vibrational energy     113133.1 (Joules/Mol)
                                   27.03945 (Kcal/Mol)
 Warning -- explicit consideration of   1 degrees of freedom as
           vibrations may cause significant error
 Vibrational temperatures:    857.82   936.79   948.04  1052.29  1154.73
          (Kelvin)           1246.51  1344.10  1396.06  1463.09  1593.43
                             1674.67  1889.93  1972.97  4669.65  5013.44

 Zero-point correction=                           0.043090 (Hartree/Particle)
 Thermal correction to Energy=                    0.046774
 Thermal correction to Enthalpy=                  0.047719
 Thermal correction to Gibbs Free Energy=         0.016818
 Sum of electronic and zero-point Energies=           -256.477146
 Sum of electronic and thermal Energies=              -256.473462
 Sum of electronic and thermal Enthalpies=            -256.472518
 Sum of electronic and thermal Free Energies=         -256.503418

                     E (Thermal)             CV                S
                      KCal/Mol        Cal/Mol-Kelvin    Cal/Mol-Kelvin
 Total                   29.351             12.788             65.035
 Electronic               0.000              0.000              0.000
 Translational            0.889              2.981             38.656
 Rotational               0.889              2.981             24.090
 Vibrational             27.574              6.826              2.289
 Vibration     1          0.954              1.040              0.456

 Normal termination of Gaussian 09 at Mon Nov 25 17:30:44 2013.
