 Gaussian 09, Revision D.01,
 Gaussian 09:  EM64L-G09RevD.01 24-Apr-2013

 --------------------------------
 #PBEPBE/STO-3G opt=z-matrix freq
 --------------------------------

 -------------------------------------------------------------------
 1H-tetrazole CH2N4 casno=288948 state=1 config=1 method=61 basis=20
 -------------------------------------------------------------------
 Symbolic Z-matrix:
 Charge =  0 Multiplicity = 1

 SCF Done:  E(RPBE-PBE) =  -254.579344409     A.U. after   15 cycles
 SCF Done:  E(RPBE-PBE) =  -254.638561767     A.U. after   15 cycles
 SCF Done:  E(RPBE-PBE) =  -254.646476796     A.U. after   14 cycles
 SCF Done:  E(RPBE-PBE) =  -254.647903893     A.U. after   14 cycles
 SCF Done:  E(RPBE-PBE) =  -254.648044901     A.U. after   10 cycles
 SCF Done:  E(RPBE-PBE) =  -254.648051841     A.U. after   10 cycles
 SCF Done:  E(RPBE-PBE) =  -254.648038155     A.U. after   11 cycles
 SCF Done:  E(RPBE-PBE) =  -254.648052424     A.U. after    8 cycles
 SCF Done:  E(RPBE-PBE) =  -254.648054309     A.U. after    9 cycles
 SCF Done:  E(RPBE-PBE) =  -254.647768050     A.U. after   13 cycles
 SCF Done:  E(RPBE-PBE) =  -254.648054533     A.U. after   10 cycles
 SCF Done:  E(RPBE-PBE) =  -254.648048440     A.U. after   12 cycles
 SCF Done:  E(RPBE-PBE) =  -254.642120520     A.U. after   14 cycles
 SCF Done:  E(RPBE-PBE) =  -254.647983516     A.U. after   14 cycles
 SCF Done:  E(RPBE-PBE) =  -254.648054748     A.U. after    8 cycles
 SCF Done:  E(RPBE-PBE) =  -254.648031454     A.U. after   12 cycles
 SCF Done:  E(RPBE-PBE) =  -254.648055035     A.U. after    8 cycles
 SCF Done:  E(RPBE-PBE) =  -254.648055209     A.U. after    9 cycles
 Optimization completed.
    -- Stationary point found.
 Normal termination of Gaussian 09 at Mon Nov 25 17:29:01 2013.

 -------------------------------------------------------------------
 #P Geom=AllCheck Guess=TCheck SCRF=Check GenChk RPBEPBE/STO-3G Freq
 -------------------------------------------------------------------

 Structure from the checkpoint file:  "/tmp/rdj3/g09-31683/Gau-6177.chk"
 -------------------------------------------------------------------
 1H-tetrazole CH2N4 casno=288948 state=1 config=1 method=61 basis=20
 -------------------------------------------------------------------
 Charge =  0 Multiplicity = 1

                         Standard orientation:
 ---------------------------------------------------------------------
 Center     Atomic      Atomic             Coordinates (Angstroms)
 Number     Number       Type             X           Y           Z
 ---------------------------------------------------------------------
      1          6           0        1.110116    0.262147    0.000000
      2          7           0        0.000000    1.110693    0.000000
      3          7           0       -1.213893    0.319156    0.000000
      4          7           0       -0.757799   -0.997544    0.000000
      5          7           0        0.717269   -1.057617    0.000000
      6          1           0        2.149444    0.635717    0.000000
      7          1           0       -0.029180    2.168595    0.000000
 ---------------------------------------------------------------------

 SCF Done:  E(RPBE-PBE) =  -254.648055209     A.U. after    1 cycles

 The electronic state is 1-A'.
 Alpha  occ. eigenvalues --  -13.94504 -13.86920 -13.84191 -13.82468  -9.80608
 Alpha  occ. eigenvalues --   -0.94954  -0.79146  -0.74926  -0.55350  -0.53400
 Alpha  occ. eigenvalues --   -0.47455  -0.37857  -0.34536  -0.23892  -0.20326
 Alpha  occ. eigenvalues --   -0.19597  -0.17967  -0.16242
 Alpha virt. eigenvalues --    0.00863   0.04679   0.15444   0.18648   0.27298
 Alpha virt. eigenvalues --    0.28482   0.30620   0.43182   0.49441

 Mulliken charges:
               1
     1  C    0.049671
     2  N   -0.180181
     3  N   -0.045809
     4  N   -0.063417
     5  N   -0.142464
     6  H    0.127681
     7  H    0.254519
 Sum of Mulliken charges =   0.00000

 Dipole moment (field-independent basis, Debye):
    X=              2.0208    Y=              4.3041    Z=              0.0000  Tot=              4.7549
 Quadrupole moment (field-independent basis, Debye-Ang):
   XX=            -27.2207   YY=            -24.3948   ZZ=            -25.9965
   XY=              1.7773   XZ=              0.0000   YZ=              0.0000

  Exact polarizability:  25.871   1.234  26.731   0.000   0.000   6.252
 Approx polarizability:  76.220  -2.449  88.833   0.000   0.000  10.740

                      1                      2                      3
                     A"                     A"                     A"
 Frequencies --    440.6219               612.8412               626.4467
 Red. masses --      1.9083                 2.0808                 7.7870
 Frc consts  --      0.2183                 0.4604                 1.8005
 IR Inten    --     75.7166                14.2892                 7.4526

                      4                      5                      6
                     A"                     A'                     A'
 Frequencies --    786.9240               854.2757               902.6062
 Red. masses --      1.2467                 6.7304                 4.3779
 Frc consts  --      0.4549                 2.8939                 2.1014
 IR Inten    --     15.2390                 2.3723                 0.6957

                      7                      8                      9
                     A'                     A'                     A'
 Frequencies --    954.6902               976.5617              1087.3065
 Red. masses --      8.9082                 3.0865                 2.1812
 Frc consts  --      4.7837                 1.7343                 1.5193
 IR Inten    --     11.2714                14.4102                 3.4655

                     10                     11                     12
                     A'                     A'                     A'
 Frequencies --   1122.7893              1186.5212              1406.5900
 Red. masses --      3.1971                 2.9469                 3.4630
 Frc consts  --      2.3747                 2.4444                 4.0368
 IR Inten    --      4.6100                 2.1364                15.9930

                     13                     14                     15
                     A'                     A'                     A'
 Frequencies --   1433.2430              3423.4731              3599.9742
 Red. masses --      3.2658                 1.0996                 1.0870
 Frc consts  --      3.9526                 7.5929                 8.2997
 IR Inten    --     25.2803                28.9937                47.7471

 - Thermochemistry -
 -------------------
 Temperature   298.150 Kelvin.  Pressure   1.00000 Atm.
 Atom     1 has atomic number  6 and mass  12.00000

 Molecular mass:    70.02795 amu.
 Principal axes and moments of inertia in atomic units:
                           1         2         3
     Eigenvalues --   192.07851 198.67158 390.75008
           X            0.89358   0.44891   0.00000
           Y           -0.44891   0.89358   0.00000
           Z            0.00000   0.00000   1.00000
 This molecule is an asymmetric top.
 Rotational symmetry number  1.
 Rotational temperatures (Kelvin)      0.45093     0.43596     0.22166
 Rotational constants (GHZ):           9.39585     9.08404     4.61866
 Zero-point vibrational energy     116126.7 (Joules/Mol)
                                   27.75494 (Kcal/Mol)
 Warning -- explicit consideration of   2 degrees of freedom as
           vibrations may cause significant error
 Vibrational temperatures:    633.96   881.74   901.32  1132.21  1229.11
          (Kelvin)           1298.65  1373.58  1405.05  1564.39  1615.44
                             1707.14  2023.77  2062.11  4925.61  5179.55

 Zero-point correction=                           0.044230 (Hartree/Particle)
 Thermal correction to Energy=                    0.047998
 Thermal correction to Enthalpy=                  0.048942
 Thermal correction to Gibbs Free Energy=         0.017836
 Sum of electronic and zero-point Energies=           -254.603825
 Sum of electronic and thermal Energies=              -254.600057
 Sum of electronic and thermal Enthalpies=            -254.599113
 Sum of electronic and thermal Free Energies=         -254.630219

                     E (Thermal)             CV                S
                      KCal/Mol        Cal/Mol-Kelvin    Cal/Mol-Kelvin
 Total                   30.119             12.856             65.468
 Electronic               0.000              0.000              0.000
 Translational            0.889              2.981             38.656
 Rotational               0.889              2.981             24.215
 Vibrational             28.342              6.894              2.597
 Vibration     1          0.801              1.382              0.825
 Vibration     2          0.972              1.005              0.428

 Normal termination of Gaussian 09 at Mon Nov 25 17:29:04 2013.
