 Gaussian 09, Revision D.01,
 Gaussian 09:  EM64L-G09RevD.01 24-Apr-2013

 -------------------------------------
 #PBEPBE/aug-cc-pVTZ opt=z-matrix freq
 -------------------------------------

 -------------------------------------------------------------------
 1H-tetrazole CH2N4 casno=288948 state=1 config=1 method=61 basis=18
 -------------------------------------------------------------------
 Symbolic Z-matrix:
 Charge =  0 Multiplicity = 1

 SCF Done:  E(RPBE-PBE) =  -258.070730342     A.U. after   12 cycles
 SCF Done:  E(RPBE-PBE) =  -258.076260436     A.U. after   11 cycles
 SCF Done:  E(RPBE-PBE) =  -258.076405613     A.U. after   10 cycles
 SCF Done:  E(RPBE-PBE) =  -258.076347730     A.U. after   10 cycles
 SCF Done:  E(RPBE-PBE) =  -258.076436013     A.U. after    7 cycles
 SCF Done:  E(RPBE-PBE) =  -258.076438633     A.U. after    8 cycles
 SCF Done:  E(RPBE-PBE) =  -258.076453309     A.U. after    9 cycles
 SCF Done:  E(RPBE-PBE) =  -258.076460325     A.U. after    8 cycles
 SCF Done:  E(RPBE-PBE) =  -258.076419188     A.U. after    9 cycles
 SCF Done:  E(RPBE-PBE) =  -258.076460639     A.U. after    7 cycles
 SCF Done:  E(RPBE-PBE) =  -258.070917498     A.U. after   11 cycles
 SCF Done:  E(RPBE-PBE) =  -258.076461983     A.U. after    7 cycles
 SCF Done:  E(RPBE-PBE) =  -258.076170226     A.U. after   10 cycles
 SCF Done:  E(RPBE-PBE) =  -258.076461818     A.U. after    6 cycles
 SCF Done:  E(RPBE-PBE) =  -258.076462643     A.U. after    7 cycles
 SCF Done:  E(RPBE-PBE) =  -258.076277748     A.U. after   10 cycles
 SCF Done:  E(RPBE-PBE) =  -258.076462432     A.U. after    7 cycles
 SCF Done:  E(RPBE-PBE) =  -258.076462665     A.U. after    2 cycles
 SCF Done:  E(RPBE-PBE) =  -258.076462717     A.U. after    7 cycles
 Optimization completed.
    -- Stationary point found.
 Normal termination of Gaussian 09 at Mon Nov 25 17:18:47 2013.

 ----------------------------------------------------------------------
 #P Geom=AllCheck Guess=TCheck SCRF=Check GenChk RPBEPBE/Aug-CC-pVTZ Fr
 eq
 ----------------------------------------------------------------------

 Structure from the checkpoint file:  "/tmp/rdj3/g09-31683/Gau-901.chk"
 -------------------------------------------------------------------
 1H-tetrazole CH2N4 casno=288948 state=1 config=1 method=61 basis=18
 -------------------------------------------------------------------
 Charge =  0 Multiplicity = 1

                         Standard orientation:
 ---------------------------------------------------------------------
 Center     Atomic      Atomic             Coordinates (Angstroms)
 Number     Number       Type             X           Y           Z
 ---------------------------------------------------------------------
      1          6           0        1.070828    0.238026    0.000000
      2          7           0        0.000000    1.057873    0.000000
      3          7           0       -1.126387    0.303579    0.000000
      4          7           0       -0.724777   -0.931119    0.000000
      5          7           0        0.641423   -1.011351    0.000000
      6          1           0        2.103573    0.567891    0.000000
      7          1           0       -0.060354    2.071079    0.000000
 ---------------------------------------------------------------------

 SCF Done:  E(RPBE-PBE) =  -258.076462717     A.U. after    1 cycles

 The electronic state is 1-A'.
 Alpha  occ. eigenvalues --  -14.10636 -14.07028 -14.05458 -14.02769  -9.98109
 Alpha  occ. eigenvalues --   -1.05970  -0.87489  -0.82399  -0.62679  -0.61443
 Alpha  occ. eigenvalues --   -0.54861  -0.45714  -0.45663  -0.33997  -0.30776
 Alpha  occ. eigenvalues --   -0.28820  -0.27036  -0.25608
 Alpha virt. eigenvalues --   -0.07021  -0.04002  -0.03939  -0.00400   0.02038
 Alpha virt. eigenvalues --    0.02511   0.04109   0.04898   0.05766   0.06648
 Alpha virt. eigenvalues --    0.07684   0.08004   0.09222   0.10108   0.11469

 Mulliken charges:
               1
     1  C   -0.153607
     2  N    0.230137
     3  N   -0.307362
     4  N   -0.164523
     5  N   -0.232444
     6  H    0.500180
     7  H    0.127618
 Sum of Mulliken charges =   0.00000

 Dipole moment (field-independent basis, Debye):
    X=              2.4384    Y=              4.6420    Z=              0.0000  Tot=              5.2434
 Quadrupole moment (field-independent basis, Debye-Ang):
   XX=            -29.4155   YY=            -26.8402   ZZ=            -28.7962
   XY=              1.8439   XZ=              0.0000   YZ=              0.0000

  Exact polarizability:  48.217   0.589  47.807   0.000   0.000  27.325
 Approx polarizability:  95.543   0.375 100.823   0.000   0.000  45.767

                      1                      2                      3
                     A"                     A"                     A"
 Frequencies --    578.7900               673.4025               721.0871
 Red. masses --      1.7160                 1.9942                 8.1703
 Frc consts  --      0.3387                 0.5328                 2.5030
 IR Inten    --     72.7389                 6.4606                 7.4872

                      4                      5                      6
                     A"                     A'                     A'
 Frequencies --    824.1677               925.5674               970.8073
 Red. masses --      1.3849                 4.8716                 4.8372
 Frc consts  --      0.5542                 2.4589                 2.6860
 IR Inten    --     19.5534                 5.6189                 2.5563

                      7                      8                      9
                     A'                     A'                     A'
 Frequencies --    996.9046              1020.2413              1108.5606
 Red. masses --      7.5136                 3.2420                 1.9457
 Frc consts  --      4.3995                 1.9883                 1.4088
 IR Inten    --     10.2596                25.8386                14.3808

                     10                     11                     12
                     A'                     A'                     A'
 Frequencies --   1205.0817              1228.8830              1401.1518
 Red. masses --      2.5664                 6.7735                 3.2253
 Frc consts  --      2.1958                 6.0268                 3.7307
 IR Inten    --      8.9114                 3.1962                 7.8837

                     13                     14                     15
                     A'                     A'                     A'
 Frequencies --   1442.3073              3204.3416              3546.8647
 Red. masses --      3.3617                 1.0999                 1.0831
 Frc consts  --      4.1202                 6.6540                 8.0277
 IR Inten    --     13.3417                 1.3540                67.1166

 - Thermochemistry -
 -------------------
 Temperature   298.150 Kelvin.  Pressure   1.00000 Atm.
 Atom     1 has atomic number  6 and mass  12.00000

 Molecular mass:    70.02795 amu.
 Principal axes and moments of inertia in atomic units:
                           1         2         3
     Eigenvalues --   172.98051 175.92042 348.90093
           X            0.85968   0.51084   0.00000
           Y           -0.51084   0.85968   0.00000
           Z            0.00000   0.00000   1.00000
 This molecule is an asymmetric top.
 Rotational symmetry number  1.
 Rotational temperatures (Kelvin)      0.50071     0.49235     0.24825
 Rotational constants (GHZ):          10.43321    10.25885     5.17265
 Zero-point vibrational energy     118718.4 (Joules/Mol)
                                   28.37437 (Kcal/Mol)
 Warning -- explicit consideration of   1 degrees of freedom as
           vibrations may cause significant error
 Vibrational temperatures:    832.75   968.87  1037.48  1185.79  1331.68
          (Kelvin)           1396.77  1434.32  1467.90  1594.97  1733.84
                             1768.09  2015.94  2075.16  4610.33  5103.14

 Zero-point correction=                           0.045217 (Hartree/Particle)
 Thermal correction to Energy=                    0.048753
 Thermal correction to Enthalpy=                  0.049697
 Thermal correction to Gibbs Free Energy=         0.019092
 Sum of electronic and zero-point Energies=           -258.031245
 Sum of electronic and thermal Energies=              -258.027710
 Sum of electronic and thermal Enthalpies=            -258.026766
 Sum of electronic and thermal Free Energies=         -258.057371

                     E (Thermal)             CV                S
                      KCal/Mol        Cal/Mol-Kelvin    Cal/Mol-Kelvin
 Total                   30.593             11.792             64.413
 Electronic               0.000              0.000              0.000
 Translational            0.889              2.981             38.656
 Rotational               0.889              2.981             23.877
 Vibrational             28.815              5.830              1.880
 Vibration     1          0.935              1.077              0.488

 Normal termination of Gaussian 09 at Mon Nov 25 17:24:55 2013.
