 Gaussian 09, Revision D.01,
 Gaussian 09:  EM64L-G09RevD.01 24-Apr-2013

 ---------------------------------
 #PBEPBE/6-31G** opt=z-matrix freq
 ---------------------------------

 ------------------------------------------------------------------
 1H-tetrazole CH2N4 casno=288948 state=1 config=1 method=61 basis=3
 ------------------------------------------------------------------
 Symbolic Z-matrix:
 Charge =  0 Multiplicity = 1

 SCF Done:  E(RPBE-PBE) =  -257.976533914     A.U. after   15 cycles
 SCF Done:  E(RPBE-PBE) =  -257.984246965     A.U. after   14 cycles
 SCF Done:  E(RPBE-PBE) =  -257.984452075     A.U. after   12 cycles
 SCF Done:  E(RPBE-PBE) =  -257.984323357     A.U. after   13 cycles
 SCF Done:  E(RPBE-PBE) =  -257.984462742     A.U. after   10 cycles
 SCF Done:  E(RPBE-PBE) =  -257.984468257     A.U. after    9 cycles
 SCF Done:  E(RPBE-PBE) =  -257.984385011     A.U. after   13 cycles
 SCF Done:  E(RPBE-PBE) =  -257.984468848     A.U. after    9 cycles
 SCF Done:  E(RPBE-PBE) =  -257.984468197     A.U. after   10 cycles
 SCF Done:  E(RPBE-PBE) =  -257.984468825     A.U. after    8 cycles
 SCF Done:  E(RPBE-PBE) =  -257.984469045     A.U. after    7 cycles
 SCF Done:  E(RPBE-PBE) =  -257.984468945     A.U. after    7 cycles
 SCF Done:  E(RPBE-PBE) =  -257.984469062     A.U. after    6 cycles
 SCF Done:  E(RPBE-PBE) =  -257.984468844     A.U. after    9 cycles
 SCF Done:  E(RPBE-PBE) =  -257.984468971     A.U. after    6 cycles
 Optimization completed.
    -- Stationary point found.
 Normal termination of Gaussian 09 at Mon Nov 25 17:32:35 2013.

 ----------------------------------------------------------------------
 #P Geom=AllCheck Guess=TCheck SCRF=Check GenChk RPBEPBE/6-31G(d,p) Fre
 q
 ----------------------------------------------------------------------

 Structure from the checkpoint file:  "/tmp/rdj3/g09-31683/Gau-12836.chk"
 ------------------------------------------------------------------
 1H-tetrazole CH2N4 casno=288948 state=1 config=1 method=61 basis=3
 ------------------------------------------------------------------
 Charge =  0 Multiplicity = 1

                         Standard orientation:
 ---------------------------------------------------------------------
 Center     Atomic      Atomic             Coordinates (Angstroms)
 Number     Number       Type             X           Y           Z
 ---------------------------------------------------------------------
      1          6           0        1.074911    0.238537    0.000000
      2          7           0        0.000000    1.061469    0.000000
      3          7           0       -1.132322    0.305978    0.000000
      4          7           0       -0.725749   -0.934190    0.000000
      5          7           0        0.643833   -1.016050    0.000000
      6          1           0        2.109970    0.570952    0.000000
      7          1           0       -0.059779    2.077378    0.000000
 ---------------------------------------------------------------------

 SCF Done:  E(RPBE-PBE) =  -257.984468971     A.U. after    1 cycles

 The electronic state is 1-A'.
 Alpha  occ. eigenvalues --  -14.11825 -14.07748 -14.06035 -14.03490  -9.98960
 Alpha  occ. eigenvalues --   -1.04702  -0.86449  -0.81300  -0.61739  -0.60285
 Alpha  occ. eigenvalues --   -0.53791  -0.44751  -0.44245  -0.32618  -0.29466
 Alpha  occ. eigenvalues --   -0.27546  -0.25720  -0.24175
 Alpha virt. eigenvalues --   -0.05692  -0.02324   0.02727   0.07522   0.13441
 Alpha virt. eigenvalues --    0.15910   0.22837   0.28319   0.34862   0.46459
 Alpha virt. eigenvalues --    0.48316   0.54378   0.56047   0.58201   0.61675

 Mulliken charges:
               1
     1  C    0.294222
     2  N   -0.330473
     3  N   -0.049343
     4  N   -0.083303
     5  N   -0.295031
     6  H    0.165893
     7  H    0.298035
 Sum of Mulliken charges =   0.00000

 Dipole moment (field-independent basis, Debye):
    X=              2.4036    Y=              4.6372    Z=              0.0000  Tot=              5.2231
 Quadrupole moment (field-independent basis, Debye-Ang):
   XX=            -28.5551   YY=            -25.9056   ZZ=            -28.1640
   XY=              1.7327   XZ=              0.0000   YZ=              0.0000

  Exact polarizability:  39.171   1.090  38.730   0.000   0.000  15.907
 Approx polarizability:  84.836   0.142  90.449   0.000   0.000  28.039

                      1                      2                      3
                     A"                     A"                     A"
 Frequencies --    565.4589               671.5625               716.2038
 Red. masses --      1.8122                 1.9704                 7.8779
 Frc consts  --      0.3414                 0.5236                 2.3808
 IR Inten    --     78.2811                 9.2130                 7.9011

                      4                      5                      6
                     A"                     A'                     A'
 Frequencies --    804.3603               932.8094               970.7496
 Red. masses --      1.3465                 4.4834                 4.9596
 Frc consts  --      0.5133                 2.2985                 2.7537
 IR Inten    --     21.5955                 4.2706                 2.0953

                      7                      8                      9
                     A'                     A'                     A'
 Frequencies --   1013.1441              1030.1634              1116.3959
 Red. masses --      5.7340                 3.8502                 1.8710
 Frc consts  --      3.4678                 2.4074                 1.3739
 IR Inten    --     14.4304                25.4834                13.6469

                     10                     11                     12
                     A'                     A'                     A'
 Frequencies --   1215.5728              1235.8361              1415.5847
 Red. masses --      2.5094                 8.0140                 3.2882
 Frc consts  --      2.1847                 7.2114                 3.8823
 IR Inten    --      9.8933                 5.4234                 7.9315

                     13                     14                     15
                     A'                     A'                     A'
 Frequencies --   1452.5452              3231.3189              3571.1683
 Red. masses --      3.4308                 1.0995                 1.0831
 Frc consts  --      4.2649                 6.7639                 8.1387
 IR Inten    --     14.0606                 0.9414                63.4174

 - Thermochemistry -
 -------------------
 Temperature   298.150 Kelvin.  Pressure   1.00000 Atm.
 Atom     1 has atomic number  6 and mass  12.00000

 Molecular mass:    70.02795 amu.
 Principal axes and moments of inertia in atomic units:
                           1         2         3
     Eigenvalues --   174.10763 177.49133 351.59896
           X            0.84430   0.53587   0.00000
           Y           -0.53587   0.84430   0.00000
           Z            0.00000   0.00000   1.00000
 This molecule is an asymmetric top.
 Rotational symmetry number  1.
 Rotational temperatures (Kelvin)      0.49747     0.48799     0.24634
 Rotational constants (GHZ):          10.36566    10.16805     5.13295
 Zero-point vibrational energy     119284.9 (Joules/Mol)
                                   28.50977 (Kcal/Mol)
 Warning -- explicit consideration of   1 degrees of freedom as
           vibrations may cause significant error
 Vibrational temperatures:    813.57   966.23  1030.46  1157.29  1342.10
          (Kelvin)           1396.69  1457.69  1482.17  1606.24  1748.94
                             1778.09  2036.71  2089.89  4649.14  5138.11

 Zero-point correction=                           0.045433 (Hartree/Particle)
 Thermal correction to Energy=                    0.048977
 Thermal correction to Enthalpy=                  0.049921
 Thermal correction to Gibbs Free Energy=         0.019292
 Sum of electronic and zero-point Energies=           -257.939036
 Sum of electronic and thermal Energies=              -257.935492
 Sum of electronic and thermal Enthalpies=            -257.934548
 Sum of electronic and thermal Free Energies=         -257.965177

                     E (Thermal)             CV                S
                      KCal/Mol        Cal/Mol-Kelvin    Cal/Mol-Kelvin
 Total                   30.734             11.802             64.466
 Electronic               0.000              0.000              0.000
 Translational            0.889              2.981             38.656
 Rotational               0.889              2.981             23.900
 Vibrational             28.956              5.841              1.909
 Vibration     1          0.921              1.106              0.513

 Normal termination of Gaussian 09 at Mon Nov 25 17:32:44 2013.
