 Gaussian 09, Revision D.01,
 Gaussian 09:  EM64L-G09RevD.01 24-Apr-2013

 ------------------------
 #PBEPBE/cc-pVDZ opt freq
 ------------------------

 ------------------------------------------------------------------
 1H-tetrazole CH2N4 casno=288948 state=1 config=1 method=61 basis=5
 ------------------------------------------------------------------
 Symbolic Z-matrix:
 Charge =  0 Multiplicity = 1

 SCF Done:  E(RPBE-PBE) =  -257.993045892     A.U. after   15 cycles
 SCF Done:  E(RPBE-PBE) =  -258.001069185     A.U. after   13 cycles
 SCF Done:  E(RPBE-PBE) =  -258.001241470     A.U. after   11 cycles
 SCF Done:  E(RPBE-PBE) =  -258.001258626     A.U. after   10 cycles
 SCF Done:  E(RPBE-PBE) =  -258.001264643     A.U. after    9 cycles
 SCF Done:  E(RPBE-PBE) =  -258.001266123     A.U. after    9 cycles
 Optimization completed.
    -- Stationary point found.
 Normal termination of Gaussian 09 at Mon Dec 16 15:01:38 2013.

 --------------------------------------------------------------------
 #P Geom=AllCheck Guess=TCheck SCRF=Check GenChk RPBEPBE/CC-pVDZ Freq
 --------------------------------------------------------------------

 Structure from the checkpoint file:  "/tmp/rdj3/g09-20196/Gau-21583.chk"
 ------------------------------------------------------------------
 1H-tetrazole CH2N4 casno=288948 state=1 config=1 method=61 basis=5
 ------------------------------------------------------------------
 Charge =  0 Multiplicity = 1

                         Standard orientation:
 ---------------------------------------------------------------------
 Center     Atomic      Atomic             Coordinates (Angstroms)
 Number     Number       Type             X           Y           Z
 ---------------------------------------------------------------------
      1          6           0        1.074616    0.235986    0.000000
      2          7           0        0.000000    1.062019    0.000000
      3          7           0       -1.130297    0.307729    0.000000
      4          7           0       -0.727266   -0.932219    0.000000
      5          7           0        0.642175   -1.018820    0.000000
      6          1           0        2.116117    0.570504    0.000000
      7          1           0       -0.056098    2.082609    0.000000
 ---------------------------------------------------------------------

 SCF Done:  E(RPBE-PBE) =  -258.001266123     A.U. after    1 cycles

 The electronic state is 1-A'.
 Alpha  occ. eigenvalues --  -14.10722 -14.06511 -14.04802 -14.02468  -9.98326
 Alpha  occ. eigenvalues --   -1.04689  -0.86355  -0.81196  -0.61485  -0.60187
 Alpha  occ. eigenvalues --   -0.53540  -0.44492  -0.44194  -0.32416  -0.29359
 Alpha  occ. eigenvalues --   -0.27459  -0.25500  -0.23997
 Alpha virt. eigenvalues --   -0.05563  -0.02289   0.00905   0.05309   0.12995
 Alpha virt. eigenvalues --    0.15494   0.22186   0.24601   0.32602   0.37822
 Alpha virt. eigenvalues --    0.42231   0.48621   0.51222   0.52245   0.61191

 Mulliken charges:
               1
     1  C    0.187494
     2  N   -0.027596
     3  N   -0.070850
     4  N   -0.089278
     5  N   -0.172289
     6  H    0.054397
     7  H    0.118123
 Sum of Mulliken charges =   0.00000

 Dipole moment (field-independent basis, Debye):
    X=              2.2941    Y=              4.5298    Z=              0.0000  Tot=              5.0776
 Quadrupole moment (field-independent basis, Debye-Ang):
   XX=            -28.6073   YY=            -25.9161   ZZ=            -27.9765
   XY=              1.6689   XZ=              0.0000   YZ=              0.0000

  Exact polarizability:  39.444   1.229  38.651   0.000   0.000  16.309
 Approx polarizability:  85.437   0.596  90.598   0.000   0.000  28.687

                      1                      2                      3
                     A"                     A"                     A"
 Frequencies --    565.3890               671.7357               719.4315
 Red. masses --      1.7664                 2.0022                 7.6148
 Frc consts  --      0.3327                 0.5323                 2.3221
 IR Inten    --     67.0653                 6.7347                 7.7249

                      4                      5                      6
                     A"                     A'                     A'
 Frequencies --    807.4229               928.3993               969.0554
 Red. masses --      1.3678                 3.8610                 4.5135
 Frc consts  --      0.5254                 1.9607                 2.4972
 IR Inten    --     20.3660                 4.1001                 2.3711

                      7                      8                      9
                     A'                     A'                     A'
 Frequencies --   1012.2983              1022.9782              1104.8631
 Red. masses --      4.9142                 3.5495                 2.0399
 Frc consts  --      2.9670                 2.1885                 1.4671
 IR Inten    --     17.2985                22.9942                14.2563

                     10                     11                     12
                     A'                     A'                     A'
 Frequencies --   1204.6106              1237.5011              1407.4343
 Red. masses --      2.3985                10.5843                 3.3448
 Frc consts  --      2.0506                 9.5500                 3.9037
 IR Inten    --      6.5110                 7.5129                 6.9045

                     13                     14                     15
                     A'                     A'                     A'
 Frequencies --   1445.2228              3216.6815              3532.5050
 Red. masses --      4.0531                 1.1003                 1.0840
 Frc consts  --      4.9878                 6.7076                 7.9698
 IR Inten    --     11.1136                 1.2909                63.7505

 - Thermochemistry -
 -------------------
 Temperature   298.150 Kelvin.  Pressure   1.00000 Atm.
 Atom     1 has atomic number  6 and mass  12.00000

 Molecular mass:    70.02795 amu.
 Principal axes and moments of inertia in atomic units:
                           1         2         3
     Eigenvalues --   174.06500 177.60458 351.66958
           X            0.80468   0.59370   0.00000
           Y           -0.59370   0.80468   0.00000
           Z            0.00000   0.00000   1.00000
 This molecule is an asymmetric top.
 Rotational symmetry number  1.
 Rotational temperatures (Kelvin)      0.49759     0.48768     0.24629
 Rotational constants (GHZ):          10.36820    10.16157     5.13192
 Zero-point vibrational energy     118702.6 (Joules/Mol)
                                   28.37061 (Kcal/Mol)
 Warning -- explicit consideration of   1 degrees of freedom as
           vibrations may cause significant error
 Vibrational temperatures:    813.47   966.48  1035.10  1161.70  1335.76
          (Kelvin)           1394.25  1456.47  1471.84  1589.65  1733.16
                             1780.49  2024.98  2079.35  4628.08  5082.48

 Zero-point correction=                           0.045211 (Hartree/Particle)
 Thermal correction to Energy=                    0.048757
 Thermal correction to Enthalpy=                  0.049702
 Thermal correction to Gibbs Free Energy=         0.019069
 Sum of electronic and zero-point Energies=           -257.956055
 Sum of electronic and thermal Energies=              -257.952509
 Sum of electronic and thermal Enthalpies=            -257.951564
 Sum of electronic and thermal Free Energies=         -257.982197

                     E (Thermal)             CV                S
                      KCal/Mol        Cal/Mol-Kelvin    Cal/Mol-Kelvin
 Total                   30.596             11.828             64.471
 Electronic               0.000              0.000              0.000
 Translational            0.889              2.981             38.656
 Rotational               0.889              2.981             23.901
 Vibrational             28.818              5.866              1.914
 Vibration     1          0.921              1.106              0.513

 Optimization completed.
    -- Stationary point found.
 Normal termination of Gaussian 09 at Mon Dec 16 15:01:45 2013.
