 Gaussian 09, Revision D.01,
 Gaussian 09:  EM64L-G09RevD.01 24-Apr-2013

 ---------------------
 #PBEPBE/TZVP opt freq
 ---------------------

 -------------------------------------------------------------------
 1H-tetrazole CH2N4 casno=288948 state=1 config=1 method=61 basis=32
 -------------------------------------------------------------------
 Symbolic Z-matrix:
 Charge =  0 Multiplicity = 1

 SCF Done:  E(RPBE-PBE) =  -258.056540030     A.U. after   15 cycles
 SCF Done:  E(RPBE-PBE) =  -258.062581655     A.U. after   14 cycles
 SCF Done:  E(RPBE-PBE) =  -258.062755157     A.U. after   11 cycles
 SCF Done:  E(RPBE-PBE) =  -258.062768553     A.U. after   10 cycles
 SCF Done:  E(RPBE-PBE) =  -258.062778202     A.U. after    9 cycles
 SCF Done:  E(RPBE-PBE) =  -258.062779178     A.U. after    9 cycles
 Optimization completed.
    -- Stationary point found.
 Normal termination of Gaussian 09 at Mon Dec 16 15:01:12 2013.

 -----------------------------------------------------------------
 #P Geom=AllCheck Guess=TCheck SCRF=Check GenChk RPBEPBE/TZVP Freq
 -----------------------------------------------------------------

 Structure from the checkpoint file:  "/tmp/rdj3/g09-20196/Gau-20916.chk"
 -------------------------------------------------------------------
 1H-tetrazole CH2N4 casno=288948 state=1 config=1 method=61 basis=32
 -------------------------------------------------------------------
 Charge =  0 Multiplicity = 1

                         Standard orientation:
 ---------------------------------------------------------------------
 Center     Atomic      Atomic             Coordinates (Angstroms)
 Number     Number       Type             X           Y           Z
 ---------------------------------------------------------------------
      1          6           0        1.072187    0.238177    0.000000
      2          7           0        0.000000    1.059811    0.000000
      3          7           0       -1.129036    0.301943    0.000000
      4          7           0       -0.725760   -0.931674    0.000000
      5          7           0        0.643882   -1.011475    0.000000
      6          1           0        2.106054    0.566554    0.000000
      7          1           0       -0.062770    2.074150    0.000000
 ---------------------------------------------------------------------

 SCF Done:  E(RPBE-PBE) =  -258.062779178     A.U. after    1 cycles

 The electronic state is 1-A'.
 Alpha  occ. eigenvalues --  -14.10306 -14.06553 -14.04867 -14.02280  -9.97875
 Alpha  occ. eigenvalues --   -1.06272  -0.87610  -0.82672  -0.62772  -0.61540
 Alpha  occ. eigenvalues --   -0.55003  -0.45823  -0.45544  -0.33838  -0.30678
 Alpha  occ. eigenvalues --   -0.28865  -0.26836  -0.25387
 Alpha virt. eigenvalues --   -0.06930  -0.03666  -0.01259   0.03936   0.09004
 Alpha virt. eigenvalues --    0.09909   0.11030   0.17498   0.18260   0.22148
 Alpha virt. eigenvalues --    0.25280   0.27902   0.30826   0.31509   0.32246

 Mulliken charges:
               1
     1  C   -0.133586
     2  N   -0.080985
     3  N   -0.070229
     4  N   -0.081256
     5  N   -0.035421
     6  H    0.138623
     7  H    0.262854
 Sum of Mulliken charges =   0.00000

 Dipole moment (field-independent basis, Debye):
    X=              2.4922    Y=              4.7810    Z=              0.0000  Tot=              5.3916
 Quadrupole moment (field-independent basis, Debye-Ang):
   XX=            -29.4255   YY=            -26.8111   ZZ=            -28.6252
   XY=              1.8359   XZ=              0.0000   YZ=              0.0000

  Exact polarizability:  43.608   0.832  43.260   0.000   0.000  22.329
 Approx polarizability:  88.168   0.174  94.219   0.000   0.000  37.176

                      1                      2                      3
                     A"                     A"                     A"
 Frequencies --    560.0954               673.1918               712.3007
 Red. masses --      2.1376                 1.8102                 6.9025
 Frc consts  --      0.3951                 0.4834                 2.0634
 IR Inten    --     63.4975                14.2103                 8.9671

                      4                      5                      6
                     A"                     A'                     A'
 Frequencies --    798.5883               917.6514               965.7903
 Red. masses --      1.3095                 5.5259                 4.6683
 Frc consts  --      0.4920                 2.7416                 2.5655
 IR Inten    --     30.4403                 7.2922                 6.6377

                      7                      8                      9
                     A'                     A'                     A'
 Frequencies --    986.7693              1020.0124              1112.3700
 Red. masses --      8.4751                 3.3004                 1.9399
 Frc consts  --      4.8621                 2.0231                 1.4142
 IR Inten    --      8.9176                25.0023                15.9044

                     10                     11                     12
                     A'                     A'                     A'
 Frequencies --   1207.8242              1228.5533              1400.7635
 Red. masses --      2.5706                 6.2004                 3.1724
 Frc consts  --      2.2095                 5.5139                 3.6674
 IR Inten    --     12.7593                 3.4883                 7.7679

                     13                     14                     15
                     A'                     A'                     A'
 Frequencies --   1446.1392              3212.6378              3552.3708
 Red. masses --      3.1716                 1.1000                 1.0832
 Frc consts  --      3.9080                 6.6889                 8.0534
 IR Inten    --     14.1900                 1.8615                71.8211

 - Thermochemistry -
 -------------------
 Temperature   298.150 Kelvin.  Pressure   1.00000 Atm.
 Atom     1 has atomic number  6 and mass  12.00000

 Molecular mass:    70.02795 amu.
 Principal axes and moments of inertia in atomic units:
                           1         2         3
     Eigenvalues --   173.33302 176.52227 349.85529
           X            0.88745   0.46090   0.00000
           Y           -0.46090   0.88745   0.00000
           Z            0.00000   0.00000   1.00000
 This molecule is an asymmetric top.
 Rotational symmetry number  1.
 Rotational temperatures (Kelvin)      0.49970     0.49067     0.24757
 Rotational constants (GHZ):          10.41199    10.22387     5.15854
 Zero-point vibrational energy     118400.7 (Joules/Mol)
                                   28.29846 (Kcal/Mol)
 Warning -- explicit consideration of   1 degrees of freedom as
           vibrations may cause significant error
 Vibrational temperatures:    805.85   968.57  1024.84  1148.99  1320.29
          (Kelvin)           1389.56  1419.74  1467.57  1600.45  1737.79
                             1767.61  2015.38  2080.67  4622.26  5111.06

 Zero-point correction=                           0.045096 (Hartree/Particle)
 Thermal correction to Energy=                    0.048657
 Thermal correction to Enthalpy=                  0.049601
 Thermal correction to Gibbs Free Energy=         0.018957
 Sum of electronic and zero-point Energies=           -258.017683
 Sum of electronic and thermal Energies=              -258.014122
 Sum of electronic and thermal Enthalpies=            -258.013178
 Sum of electronic and thermal Free Energies=         -258.043822

                     E (Thermal)             CV                S
                      KCal/Mol        Cal/Mol-Kelvin    Cal/Mol-Kelvin
 Total                   30.533             11.912             64.496
 Electronic               0.000              0.000              0.000
 Translational            0.889              2.981             38.656
 Rotational               0.889              2.981             23.886
 Vibrational             28.755              5.951              1.955
 Vibration     1          0.916              1.118              0.524

 Optimization completed.
    -- Stationary point found.
 Normal termination of Gaussian 09 at Mon Dec 16 15:01:23 2013.
