 Gaussian 09, Revision D.01,
 Gaussian 09:  EM64L-G09RevD.01 24-Apr-2013

 ----------------------------------
 #PBEPBE/6-31+G** opt=z-matrix freq
 ----------------------------------

 ------------------------------------------------------------------
 1H-tetrazole CH2N4 casno=288948 state=1 config=1 method=61 basis=4
 ------------------------------------------------------------------
 Symbolic Z-matrix:
 Charge =  0 Multiplicity = 1

 SCF Done:  E(RPBE-PBE) =  -257.989049210     A.U. after   12 cycles
 SCF Done:  E(RPBE-PBE) =  -257.996708592     A.U. after   12 cycles
 SCF Done:  E(RPBE-PBE) =  -257.996911304     A.U. after   11 cycles
 SCF Done:  E(RPBE-PBE) =  -257.996398545     A.U. after   11 cycles
 SCF Done:  E(RPBE-PBE) =  -257.996935844     A.U. after   10 cycles
 SCF Done:  E(RPBE-PBE) =  -257.996940391     A.U. after    9 cycles
 SCF Done:  E(RPBE-PBE) =  -257.996916058     A.U. after   10 cycles
 SCF Done:  E(RPBE-PBE) =  -257.996940244     A.U. after    7 cycles
 SCF Done:  E(RPBE-PBE) =  -257.996940911     A.U. after    8 cycles
 SCF Done:  E(RPBE-PBE) =  -257.996876308     A.U. after   10 cycles
 SCF Done:  E(RPBE-PBE) =  -257.996940896     A.U. after    8 cycles
 SCF Done:  E(RPBE-PBE) =  -257.996940994     A.U. after    7 cycles
 SCF Done:  E(RPBE-PBE) =  -257.996928808     A.U. after    9 cycles
 SCF Done:  E(RPBE-PBE) =  -257.996940959     A.U. after    7 cycles
 SCF Done:  E(RPBE-PBE) =  -257.996941009     A.U. after    7 cycles
 SCF Done:  E(RPBE-PBE) =  -257.996940992     A.U. after    7 cycles
 Optimization completed.
    -- Stationary point found.
 Normal termination of Gaussian 09 at Mon Nov 25 17:33:33 2013.

 ----------------------------------------------------------------------
 #P Geom=AllCheck Guess=TCheck SCRF=Check GenChk RPBEPBE/6-31+G(d,p) Fr
 eq
 ----------------------------------------------------------------------

 Structure from the checkpoint file:  "/tmp/rdj3/g09-31683/Gau-14189.chk"
 ------------------------------------------------------------------
 1H-tetrazole CH2N4 casno=288948 state=1 config=1 method=61 basis=4
 ------------------------------------------------------------------
 Charge =  0 Multiplicity = 1

                         Standard orientation:
 ---------------------------------------------------------------------
 Center     Atomic      Atomic             Coordinates (Angstroms)
 Number     Number       Type             X           Y           Z
 ---------------------------------------------------------------------
      1          6           0        1.075722    0.239318    0.000000
      2          7           0        0.000000    1.061934    0.000000
      3          7           0       -1.131137    0.305377    0.000000
      4          7           0       -0.726014   -0.934936    0.000000
      5          7           0        0.642158   -1.015554    0.000000
      6          1           0        2.112083    0.567896    0.000000
      7          1           0       -0.061465    2.078454    0.000000
 ---------------------------------------------------------------------

 SCF Done:  E(RPBE-PBE) =  -257.996940992     A.U. after    1 cycles

 The electronic state is 1-A'.
 Alpha  occ. eigenvalues --  -14.13068 -14.09249 -14.07583 -14.05057 -10.00108
 Alpha  occ. eigenvalues --   -1.06183  -0.87824  -0.82659  -0.62980  -0.61585
 Alpha  occ. eigenvalues --   -0.54973  -0.45936  -0.45534  -0.34046  -0.30829
 Alpha  occ. eigenvalues --   -0.28850  -0.27207  -0.25690
 Alpha virt. eigenvalues --   -0.07200  -0.03997  -0.03125   0.00705   0.02990
 Alpha virt. eigenvalues --    0.04058   0.05557   0.06988   0.09031   0.11388
 Alpha virt. eigenvalues --    0.11841   0.12717   0.14440   0.15643   0.16131

 Mulliken charges:
               1
     1  C   -0.010296
     2  N   -0.258610
     3  N   -0.016766
     4  N   -0.022958
     5  N   -0.218102
     6  H    0.190661
     7  H    0.336071
 Sum of Mulliken charges =   0.00000

 Dipole moment (field-independent basis, Debye):
    X=              2.5657    Y=              4.8161    Z=              0.0000  Tot=              5.4569
 Quadrupole moment (field-independent basis, Debye-Ang):
   XX=            -29.6068   YY=            -26.9500   ZZ=            -29.0263
   XY=              1.9020   XZ=              0.0000   YZ=              0.0000

  Exact polarizability:  46.386   0.451  46.000   0.000   0.000  24.850
 Approx polarizability:  91.792  -0.277  97.417   0.000   0.000  40.451

                      1                      2                      3
                     A"                     A"                     A"
 Frequencies --    559.7787               667.3657               710.3256
 Red. masses --      1.8610                 1.9152                 8.2295
 Frc consts  --      0.3436                 0.5026                 2.4465
 IR Inten    --     76.9521                10.3227                 7.5662

                      4                      5                      6
                     A"                     A'                     A'
 Frequencies --    802.5771               931.6791               972.1476
 Red. masses --      1.3374                 4.5217                 5.4012
 Frc consts  --      0.5076                 2.3125                 3.0075
 IR Inten    --     27.8338                 4.4912                 2.2347

                      7                      8                      9
                     A'                     A'                     A'
 Frequencies --   1011.4379              1030.1534              1112.2203
 Red. masses --      5.3189                 4.0603                 1.8354
 Frc consts  --      3.2059                 2.5387                 1.3377
 IR Inten    --     13.8159                27.4364                13.6546

                     10                     11                     12
                     A'                     A'                     A'
 Frequencies --   1214.6368              1234.4071              1410.5757
 Red. masses --      2.4830                 8.1482                 3.3170
 Frc consts  --      2.1583                 7.3152                 3.8886
 IR Inten    --      9.6656                 6.1500                 8.3970

                     13                     14                     15
                     A'                     A'                     A'
 Frequencies --   1449.1815              3232.6619              3568.7740
 Red. masses --      3.3308                 1.0998                 1.0835
 Frc consts  --      4.1214                 6.7717                 8.1303
 IR Inten    --     14.3412                 1.9663                73.5869

 - Thermochemistry -
 -------------------
 Temperature   298.150 Kelvin.  Pressure   1.00000 Atm.
 Atom     1 has atomic number  6 and mass  12.00000

 Molecular mass:    70.02795 amu.
 Principal axes and moments of inertia in atomic units:
                           1         2         3
     Eigenvalues --   174.31060 177.24374 351.55434
           X            0.84493   0.53488   0.00000
           Y           -0.53488   0.84493   0.00000
           Z            0.00000   0.00000   1.00000
 This molecule is an asymmetric top.
 Rotational symmetry number  1.
 Rotational temperatures (Kelvin)      0.49689     0.48867     0.24637
 Rotational constants (GHZ):          10.35359    10.18226     5.13361
 Zero-point vibrational energy     119075.8 (Joules/Mol)
                                   28.45980 (Kcal/Mol)
 Warning -- explicit consideration of   1 degrees of freedom as
           vibrations may cause significant error
 Vibrational temperatures:    805.40   960.19  1022.00  1154.73  1340.48
          (Kelvin)           1398.70  1455.23  1482.16  1600.23  1747.59
                             1776.03  2029.50  2085.05  4651.07  5134.66

 Zero-point correction=                           0.045354 (Hartree/Particle)
 Thermal correction to Energy=                    0.048907
 Thermal correction to Enthalpy=                  0.049851
 Thermal correction to Gibbs Free Energy=         0.019208
 Sum of electronic and zero-point Energies=           -257.951587
 Sum of electronic and thermal Energies=              -257.948034
 Sum of electronic and thermal Enthalpies=            -257.947090
 Sum of electronic and thermal Free Energies=         -257.977733

                     E (Thermal)             CV                S
                      KCal/Mol        Cal/Mol-Kelvin    Cal/Mol-Kelvin
 Total                   30.689             11.846             64.493
 Electronic               0.000              0.000              0.000
 Translational            0.889              2.981             38.656
 Rotational               0.889              2.981             23.900
 Vibrational             28.912              5.885              1.937
 Vibration     1          0.915              1.118              0.524

 Normal termination of Gaussian 09 at Mon Nov 25 17:33:46 2013.
