 Gaussian 09, Revision D.01,
 Gaussian 09:  EM64L-G09RevD.01 24-Apr-2013

 -------------------------------------
 #PBEPBE/6-311G(d,p) opt=z-matrix freq
 -------------------------------------

 -------------------------------------------------------------------
 1H-tetrazole CH2N4 casno=288948 state=1 config=1 method=61 basis=21
 -------------------------------------------------------------------
 Symbolic Z-matrix:
 Charge =  0 Multiplicity = 1

 SCF Done:  E(RPBE-PBE) =  -258.036132593     A.U. after   15 cycles
 SCF Done:  E(RPBE-PBE) =  -258.042560644     A.U. after   14 cycles
 SCF Done:  E(RPBE-PBE) =  -258.042734813     A.U. after   10 cycles
 SCF Done:  E(RPBE-PBE) =  -258.042481397     A.U. after   13 cycles
 SCF Done:  E(RPBE-PBE) =  -258.042753950     A.U. after   10 cycles
 SCF Done:  E(RPBE-PBE) =  -258.042756337     A.U. after    9 cycles
 SCF Done:  E(RPBE-PBE) =  -258.042752321     A.U. after   11 cycles
 SCF Done:  E(RPBE-PBE) =  -258.042756983     A.U. after    5 cycles
 SCF Done:  E(RPBE-PBE) =  -258.042756103     A.U. after    8 cycles
 SCF Done:  E(RPBE-PBE) =  -258.042757031     A.U. after    5 cycles
 SCF Done:  E(RPBE-PBE) =  -258.042757165     A.U. after    7 cycles
 SCF Done:  E(RPBE-PBE) =  -258.042754701     A.U. after   10 cycles
 SCF Done:  E(RPBE-PBE) =  -258.042757159     A.U. after    8 cycles
 SCF Done:  E(RPBE-PBE) =  -258.042757188     A.U. after    6 cycles
 SCF Done:  E(RPBE-PBE) =  -258.042755916     A.U. after    9 cycles
 SCF Done:  E(RPBE-PBE) =  -258.034890380     A.U. after   14 cycles
 SCF Done:  E(RPBE-PBE) =  -258.042757188     A.U. after    8 cycles
 SCF Done:  E(RPBE-PBE) =  -258.042727463     A.U. after   11 cycles
 SCF Done:  E(RPBE-PBE) =  -258.042757179     A.U. after    8 cycles
 Optimization completed.
    -- Stationary point found.
 Normal termination of Gaussian 09 at Mon Nov 25 17:30:03 2013.

 ----------------------------------------------------------------------
 #P Geom=AllCheck Guess=TCheck SCRF=Check GenChk RPBEPBE/6-311G(d,p) Fr
 eq
 ----------------------------------------------------------------------

 Structure from the checkpoint file:  "/tmp/rdj3/g09-31683/Gau-7762.chk"
 -------------------------------------------------------------------
 1H-tetrazole CH2N4 casno=288948 state=1 config=1 method=61 basis=21
 -------------------------------------------------------------------
 Charge =  0 Multiplicity = 1

                         Standard orientation:
 ---------------------------------------------------------------------
 Center     Atomic      Atomic             Coordinates (Angstroms)
 Number     Number       Type             X           Y           Z
 ---------------------------------------------------------------------
      1          6           0        1.073005    0.236990    0.000000
      2          7           0        0.000000    1.060337    0.000000
      3          7           0       -1.129296    0.304025    0.000000
      4          7           0       -0.725758   -0.931480    0.000000
      5          7           0        0.643100   -1.013482    0.000000
      6          1           0        2.106961    0.567099    0.000000
      7          1           0       -0.061310    2.075167    0.000000
 ---------------------------------------------------------------------

 SCF Done:  E(RPBE-PBE) =  -258.042757179     A.U. after    1 cycles

 The electronic state is 1-A'.
 Alpha  occ. eigenvalues --  -14.09269 -14.05307 -14.03590 -14.01078  -9.97093
 Alpha  occ. eigenvalues --   -1.05543  -0.87014  -0.81990  -0.62233  -0.60916
 Alpha  occ. eigenvalues --   -0.54428  -0.45298  -0.44969  -0.33189  -0.30087
 Alpha  occ. eigenvalues --   -0.28241  -0.26197  -0.24713
 Alpha virt. eigenvalues --   -0.06274  -0.02966  -0.00366   0.04000   0.11592
 Alpha virt. eigenvalues --    0.14373   0.18615   0.22288   0.27552   0.33614
 Alpha virt. eigenvalues --    0.35357   0.39103   0.44414   0.47589   0.51776

 Mulliken charges:
               1
     1  C    0.218551
     2  N   -0.269668
     3  N   -0.028533
     4  N   -0.087831
     5  N   -0.227289
     6  H    0.145717
     7  H    0.249054
 Sum of Mulliken charges =   0.00000

 Dipole moment (field-independent basis, Debye):
    X=              2.4113    Y=              4.6692    Z=              0.0000  Tot=              5.2550
 Quadrupole moment (field-independent basis, Debye-Ang):
   XX=            -28.9386   YY=            -26.3876   ZZ=            -28.3222
   XY=              1.7621   XZ=              0.0000   YZ=              0.0000

  Exact polarizability:  40.600   1.105  40.140   0.000   0.000  17.966
 Approx polarizability:  85.852   0.487  91.646   0.000   0.000  30.881

                      1                      2                      3
                     A"                     A"                     A"
 Frequencies --    590.9651               676.8569               718.8686
 Red. masses --      1.9895                 1.8069                 7.1345
 Frc consts  --      0.4094                 0.4877                 2.1723
 IR Inten    --     72.6425                12.7018                 9.7379

                      4                      5                      6
                     A"                     A'                     A'
 Frequencies --    818.2087               927.2599               971.6535
 Red. masses --      1.3652                 4.7146                 4.6515
 Frc consts  --      0.5385                 2.3884                 2.5874
 IR Inten    --     21.5551                 6.1846                 3.5740

                      7                      8                      9
                     A'                     A'                     A'
 Frequencies --    999.5810              1025.0454              1111.1574
 Red. masses --      7.7126                 3.2643                 1.9741
 Frc consts  --      4.5403                 2.0208                 1.4360
 IR Inten    --     11.0009                25.5547                15.6660

                     10                     11                     12
                     A'                     A'                     A'
 Frequencies --   1210.9758              1232.0958              1405.6033
 Red. masses --      2.4102                 8.7704                 3.3506
 Frc consts  --      2.0824                 7.8444                 3.9003
 IR Inten    --      9.0289                 6.2267                 7.5379

                     13                     14                     15
                     A'                     A'                     A'
 Frequencies --   1449.2828              3211.1076              3557.2064
 Red. masses --      3.1732                 1.0997                 1.0831
 Frc consts  --      3.9269                 6.6809                 8.0747
 IR Inten    --     13.7171                 1.0871                66.5985

 - Thermochemistry -
 -------------------
 Temperature   298.150 Kelvin.  Pressure   1.00000 Atm.
 Atom     1 has atomic number  6 and mass  12.00000

 Molecular mass:    70.02795 amu.
 Principal axes and moments of inertia in atomic units:
                           1         2         3
     Eigenvalues --   173.41888 176.79989 350.21877
           X            0.85861   0.51262   0.00000
           Y           -0.51262   0.85861   0.00000
           Z            0.00000   0.00000   1.00000
 This molecule is an asymmetric top.
 Rotational symmetry number  1.
 Rotational temperatures (Kelvin)      0.49945     0.48990     0.24731
 Rotational constants (GHZ):          10.40683    10.20782     5.15318
 Zero-point vibrational energy     119063.5 (Joules/Mol)
                                   28.45687 (Kcal/Mol)
 Warning -- explicit consideration of   1 degrees of freedom as
           vibrations may cause significant error
 Vibrational temperatures:    850.27   973.84  1034.29  1177.22  1334.12
          (Kelvin)           1397.99  1438.17  1474.81  1598.71  1742.32
                             1772.71  2022.35  2085.19  4620.06  5118.02

 Zero-point correction=                           0.045349 (Hartree/Particle)
 Thermal correction to Energy=                    0.048875
 Thermal correction to Enthalpy=                  0.049820
 Thermal correction to Gibbs Free Energy=         0.019222
 Sum of electronic and zero-point Energies=           -257.997408
 Sum of electronic and thermal Energies=              -257.993882
 Sum of electronic and thermal Enthalpies=            -257.992938
 Sum of electronic and thermal Free Energies=         -258.023535

                     E (Thermal)             CV                S
                      KCal/Mol        Cal/Mol-Kelvin    Cal/Mol-Kelvin
 Total                   30.670             11.749             64.398
 Electronic               0.000              0.000              0.000
 Translational            0.889              2.981             38.656
 Rotational               0.889              2.981             23.889
 Vibrational             28.892              5.788              1.853
 Vibration     1          0.948              1.051              0.465

 Normal termination of Gaussian 09 at Mon Nov 25 17:30:15 2013.
