 Gaussian 09, Revision D.01,
 Gaussian 09:  EM64L-G09RevD.01 24-Apr-2013

 ------------------------------
 #MP3/cc-pVTZ opt=z-matrix freq
 ------------------------------

 ------------------------------------------------------------------
 1H-tetrazole CH2N4 casno=288948 state=1 config=1 method=62 basis=6
 ------------------------------------------------------------------
 Symbolic Z-matrix:
 Charge =  0 Multiplicity = 1

 SCF Done:  E(RHF) =  -256.848466948     A.U. after   14 cycles
 E2 =    -0.9516515969D+00 EUMP2 =    -0.25780011854461D+03
 SCF Done:  E(RHF) =  -256.845930658     A.U. after   12 cycles
 E2 =    -0.9579850408D+00 EUMP2 =    -0.25780391569857D+03
 SCF Done:  E(RHF) =  -256.845589847     A.U. after   10 cycles
 E2 =    -0.9585666328D+00 EUMP2 =    -0.25780415647981D+03
 SCF Done:  E(RHF) =  -256.845389384     A.U. after   11 cycles
 E2 =    -0.9586123080D+00 EUMP2 =    -0.25780400169157D+03
 SCF Done:  E(RHF) =  -256.845519373     A.U. after    9 cycles
 E2 =    -0.9587174321D+00 EUMP2 =    -0.25780423680542D+03
 SCF Done:  E(RHF) =  -256.845575120     A.U. after   10 cycles
 E2 =    -0.9586831767D+00 EUMP2 =    -0.25780425829708D+03
 SCF Done:  E(RHF) =  -256.845525127     A.U. after    7 cycles
 E2 =    -0.9587184012D+00 EUMP2 =    -0.25780424352849D+03
 SCF Done:  E(RHF) =  -256.845606337     A.U. after    9 cycles
 E2 =    -0.9585785135D+00 EUMP2 =    -0.25780418485025D+03
 SCF Done:  E(RHF) =  -256.845547115     A.U. after    7 cycles
 E2 =    -0.9586883440D+00 EUMP2 =    -0.25780423545866D+03
 SCF Done:  E(RHF) =  -256.845542923     A.U. after   11 cycles
 E2 =    -0.9586796256D+00 EUMP2 =    -0.25780422254905D+03
 E2 =    -0.9586878606D+00 EUMP2 =    -0.25780423621643D+03
 E2 =    -0.9586347121D+00 EUMP2 =    -0.25780420860265D+03
 E2 =    -0.9586817328D+00 EUMP2 =    -0.25780422757410D+03
 E2 =    -0.9655421436D+00 EUMP2 =    -0.25779998474112D+03
 E2 =    -0.9586895840D+00 EUMP2 =    -0.25780423701071D+03
 E2 =    -0.9584391814D+00 EUMP2 =    -0.25780411720385D+03
 E2 =    -0.9586871540D+00 EUMP2 =    -0.25780423625138D+03
 Optimization completed.
    -- Stationary point found.
 Normal termination of Gaussian 09 at Tue Nov 26 02:03:45 2013.

 ---------------------------------------------------------------------
 #N Geom=AllCheck Guess=TCheck SCRF=Check GenChk RMP3(FC)/CC-pVTZ Freq
 ---------------------------------------------------------------------

 Structure from the checkpoint file:  "/tmp/rdj3/g09-31683/Gau-12874.chk"
 ------------------------------------------------------------------
 1H-tetrazole CH2N4 casno=288948 state=1 config=1 method=62 basis=6
 ------------------------------------------------------------------
 Charge =  0 Multiplicity = 1

                         Standard orientation:
 ---------------------------------------------------------------------
 Center     Atomic      Atomic             Coordinates (Angstroms)
 Number     Number       Type             X           Y           Z
 ---------------------------------------------------------------------
      1          6           0        1.061339    0.230762    0.000000
      2          7           0        0.000000    1.048629    0.000000
      3          7           0       -1.109886    0.303043    0.000000
      4          7           0       -0.722456   -0.917811    0.000000
      5          7           0        0.633191   -1.003245    0.000000
      6          1           0        2.083305    0.553939    0.000000
      7          1           0       -0.057280    2.047185    0.000000
 ---------------------------------------------------------------------

 E2 =    -0.9586871602D+00 EUMP2 =    -0.25780423625753D+03
 E2 =    -0.9587365189D+00 EUMP2 =    -0.25780424911820D+03
 E2 =    -0.9586381058D+00 EUMP2 =    -0.25780422013002D+03
 E2 =    -0.9586811719D+00 EUMP2 =    -0.25780424276658D+03
 E2 =    -0.9586933352D+00 EUMP2 =    -0.25780422822274D+03
 E2 =    -0.9585633239D+00 EUMP2 =    -0.25780418899653D+03
 E2 =    -0.9588112987D+00 EUMP2 =    -0.25780428142080D+03
 E2 =    -0.9586872730D+00 EUMP2 =    -0.25780423607426D+03
 E2 =    -0.9587120250D+00 EUMP2 =    -0.25780423532593D+03
 E2 =    -0.9586624887D+00 EUMP2 =    -0.25780423581531D+03
 E2 =    -0.9586094322D+00 EUMP2 =    -0.25780420897901D+03
 E2 =    -0.9587650945D+00 EUMP2 =    -0.25780426130967D+03
 E2 =    -0.9586872519D+00 EUMP2 =    -0.25780423609498D+03
 SCF Done:  E(RHF) =  -256.845541151     A.U. after    6 cycles
 E2 =    -0.9586970214D+00 EUMP2 =    -0.25780423817211D+03
 SCF Done:  E(RHF) =  -256.845555718     A.U. after    7 cycles
 E2 =    -0.9586774018D+00 EUMP2 =    -0.25780423312019D+03
 SCF Done:  E(RHF) =  -256.845546264     A.U. after    6 cycles
 E2 =    -0.9586910967D+00 EUMP2 =    -0.25780423736030D+03
 SCF Done:  E(RHF) =  -256.845551600     A.U. after    7 cycles
 E2 =    -0.9586833223D+00 EUMP2 =    -0.25780423492203D+03
 SCF Done:  E(RHF) =  -256.845549040     A.U. after    6 cycles
 E2 =    -0.9586872035D+00 EUMP2 =    -0.25780423624358D+03
 SCF Done:  E(RHF) =  -256.845550839     A.U. after    6 cycles
 E2 =    -0.9586840624D+00 EUMP2 =    -0.25780423490153D+03
 SCF Done:  E(RHF) =  -256.845547085     A.U. after    6 cycles
 E2 =    -0.9586903804D+00 EUMP2 =    -0.25780423746498D+03
 SCF Done:  E(RHF) =  -256.845530005     A.U. after    7 cycles
 E2 =    -0.9587163761D+00 EUMP2 =    -0.25780424638149D+03
 SCF Done:  E(RHF) =  -256.845566378     A.U. after    7 cycles
 E2 =    -0.9586580111D+00 EUMP2 =    -0.25780422438933D+03
 SCF Done:  E(RHF) =  -256.845549063     A.U. after    5 cycles
 E2 =    -0.9586871982D+00 EUMP2 =    -0.25780423626085D+03

 Alpha  occ. eigenvalues --  -15.67962 -15.65990 -15.64319 -15.60077 -11.33391
 Alpha  occ. eigenvalues --   -1.49930  -1.25774  -1.19652  -0.90835  -0.89086
 Alpha  occ. eigenvalues --   -0.80177  -0.68022  -0.67788  -0.56919  -0.47756
 Alpha  occ. eigenvalues --   -0.47097  -0.45584  -0.41940
 Alpha virt. eigenvalues --    0.11651   0.13494   0.15802   0.18011   0.26964
 Alpha virt. eigenvalues --    0.29470   0.35401   0.41157   0.42351   0.47506
 Alpha virt. eigenvalues --    0.51606   0.55539   0.56526   0.57612   0.59275

 Mulliken charges:
               1
     1  C   -0.076203
     2  N   -0.031027
     3  N   -0.067917
     4  N   -0.076425
     5  N   -0.152944
     6  H    0.186158
     7  H    0.218358
 Sum of Mulliken charges =   0.00000

 Dipole moment (field-independent basis, Debye):
    X=              2.4553    Y=              4.7670    Z=              0.0016  Tot=              5.3622
 Quadrupole moment (field-independent basis, Debye-Ang):
   XX=            -28.9654   YY=            -26.4864   ZZ=            -28.4484
   XY=              1.8497   XZ=             -0.0001   YZ=              0.0038

                      1                      2                      3
                     A"                     A"                     A"
 Frequencies --    594.5320               706.2561               755.9950
 Red. masses --      1.7522                 2.0574                 7.3741
 Frc consts  --      0.3649                 0.6046                 2.4831
 IR Inten    --     81.9060                 7.4602                 9.7935

                      4                      5                      6
                     A"                     A'                     A'
 Frequencies --    903.1090              1001.1139              1036.0482
 Red. masses --      1.3578                 4.9311                 7.3147
 Frc consts  --      0.6525                 2.9118                 4.6260
 IR Inten    --     17.8843                 1.8394                 1.6163

                      7                      8                      9
                     A'                     A'                     A'
 Frequencies --   1095.8387              1121.6978              1177.8923
 Red. masses --      4.8522                 2.6450                 1.9324
 Frc consts  --      3.4331                 1.9608                 1.5796
 IR Inten    --     22.0575                24.3271                13.6236

                     10                     11                     12
                     A'                     A'                     A'
 Frequencies --   1315.5705              1357.8990              1524.9112
 Red. masses --      2.8678                 8.2593                 2.9474
 Frc consts  --      2.9243                 8.9728                 4.0381
 IR Inten    --      0.1103                15.7516                15.9531

                     13                     14                     15
                     A'                     A'                     A'
 Frequencies --   1568.2928              3348.1758              3757.8841
 Red. masses --      3.7745                 1.1022                 1.0841
 Frc consts  --      5.4697                 7.2799                 9.0197
 IR Inten    --     16.6714                 1.6187               120.2768

 - Thermochemistry -
 -------------------
 Temperature   298.150 Kelvin.  Pressure   1.00000 Atm.
 Atom     1 has atomic number  6 and mass  12.00000

 Molecular mass:    70.02795 amu.
 Principal axes and moments of inertia in atomic units:
                           1         2         3
     Eigenvalues --   169.20493 172.40422 341.60915
           X            0.83677   0.54756   0.00000
           Y           -0.54756   0.83677   0.00000
           Z            0.00000   0.00000   1.00000
 This molecule is an asymmetric top.
 Rotational symmetry number  1.
 Rotational temperatures (Kelvin)      0.51189     0.50239     0.25355
 Rotational constants (GHZ):          10.66601    10.46808     5.28306
 Zero-point vibrational energy     127194.2 (Joules/Mol)
                                   30.40015 (Kcal/Mol)
 Warning -- explicit consideration of   1 degrees of freedom as
           vibrations may cause significant error
 Vibrational temperatures:    855.40  1016.14  1087.71  1299.37  1440.38
          (Kelvin)           1490.64  1576.67  1613.87  1694.72  1892.81
                             1953.71  2194.00  2256.42  4817.27  5406.75

 Zero-point correction=                           0.048446 (Hartree/Particle)
 Thermal correction to Energy=                    0.051860
 Thermal correction to Enthalpy=                  0.052804
 Thermal correction to Gibbs Free Energy=         0.022386
 Sum of electronic and zero-point Energies=           -257.746569
 Sum of electronic and thermal Energies=              -257.743155
 Sum of electronic and thermal Enthalpies=            -257.742211
 Sum of electronic and thermal Free Energies=         -257.772628

                     E (Thermal)             CV                S
                      KCal/Mol        Cal/Mol-Kelvin    Cal/Mol-Kelvin
 Total                   32.542             10.915             64.019
 Electronic               0.000              0.000              0.000
 Translational            0.889              2.981             38.656
 Rotational               0.889              2.981             23.814
 Vibrational             30.765              4.953              1.548
 Vibration     1          0.952              1.043              0.459

 Optimization completed.
    -- Stationary point found.
 Normal termination of Gaussian 09 at Tue Nov 26 18:11:26 2013.
