 Gaussian 09, Revision D.01,
 Gaussian 09:  EM64L-G09RevD.01 24-Apr-2013

 -------------------------------
 #MP3/6-31+G** opt=z-matrix freq
 -------------------------------

 ------------------------------------------------------------------
 1H-tetrazole CH2N4 casno=288948 state=1 config=1 method=62 basis=4
 ------------------------------------------------------------------
 Symbolic Z-matrix:
 Charge =  0 Multiplicity = 1

 SCF Done:  E(RHF) =  -256.767607422     A.U. after   15 cycles
 E2 =    -0.7933570730D+00 EUMP2 =    -0.25756096449458D+03
 SCF Done:  E(RHF) =  -256.763693421     A.U. after   13 cycles
 E2 =    -0.8040285090D+00 EUMP2 =    -0.25756772193005D+03
 SCF Done:  E(RHF) =  -256.763218655     A.U. after   12 cycles
 E2 =    -0.8047995977D+00 EUMP2 =    -0.25756801825311D+03
 SCF Done:  E(RHF) =  -256.763074898     A.U. after   13 cycles
 E2 =    -0.8047015638D+00 EUMP2 =    -0.25756777646228D+03
 SCF Done:  E(RHF) =  -256.763119472     A.U. after   10 cycles
 E2 =    -0.8050029426D+00 EUMP2 =    -0.25756812241421D+03
 SCF Done:  E(RHF) =  -256.763181924     A.U. after   12 cycles
 E2 =    -0.8047662687D+00 EUMP2 =    -0.25756794819239D+03
 SCF Done:  E(RHF) =  -256.763138815     A.U. after    9 cycles
 E2 =    -0.8049849037D+00 EUMP2 =    -0.25756812371875D+03
 SCF Done:  E(RHF) =  -256.763157136     A.U. after   12 cycles
 E2 =    -0.8049887524D+00 EUMP2 =    -0.25756814588852D+03
 SCF Done:  E(RHF) =  -256.763150800     A.U. after    8 cycles
 E2 =    -0.8049720926D+00 EUMP2 =    -0.25756812289274D+03
 SCF Done:  E(RHF) =  -256.763150425     A.U. after    8 cycles
 E2 =    -0.8049780722D+00 EUMP2 =    -0.25756812849750D+03
 E2 =    -0.8049695367D+00 EUMP2 =    -0.25756812417475D+03
 E2 =    -0.8049278023D+00 EUMP2 =    -0.25756810789129D+03
 E2 =    -0.8049688543D+00 EUMP2 =    -0.25756812388540D+03
 Optimization completed.
    -- Stationary point found.
 Normal termination of Gaussian 09 at Mon Nov 25 19:11:00 2013.

 ----------------------------------------------------------------------
 #N Geom=AllCheck Guess=TCheck SCRF=Check GenChk RMP3(FC)/6-31+G(d,p) F
 req
 ----------------------------------------------------------------------

 Structure from the checkpoint file:  "/tmp/rdj3/g09-31683/Gau-887.chk"
 ------------------------------------------------------------------
 1H-tetrazole CH2N4 casno=288948 state=1 config=1 method=62 basis=4
 ------------------------------------------------------------------
 Charge =  0 Multiplicity = 1

                         Standard orientation:
 ---------------------------------------------------------------------
 Center     Atomic      Atomic             Coordinates (Angstroms)
 Number     Number       Type             X           Y           Z
 ---------------------------------------------------------------------
      1          6           0        1.068389    0.234727    0.000000
      2          7           0        0.000000    1.054126    0.000000
      3          7           0       -1.118191    0.304921    0.000000
      4          7           0       -0.725133   -0.926558    0.000000
      5          7           0        0.637184   -1.007187    0.000000
      6          1           0        2.091507    0.558218    0.000000
      7          1           0       -0.058863    2.056304    0.000000
 ---------------------------------------------------------------------

 E2 =    -0.8049688536D+00 EUMP2 =    -0.25756812388471D+03
 E2 =    -0.8050272705D+00 EUMP2 =    -0.25756813485832D+03
 E2 =    -0.8049106667D+00 EUMP2 =    -0.25756810955318D+03
 E2 =    -0.8050155648D+00 EUMP2 =    -0.25756813983421D+03
 E2 =    -0.8049221593D+00 EUMP2 =    -0.25756810541226D+03
 E2 =    -0.8049689932D+00 EUMP2 =    -0.25756812368269D+03
 E2 =    -0.8049795341D+00 EUMP2 =    -0.25756812633224D+03
 E2 =    -0.8049549044D+00 EUMP2 =    -0.25756812952622D+03
 E2 =    -0.8049829255D+00 EUMP2 =    -0.25756811668010D+03
 E2 =    -0.8048323920D+00 EUMP2 =    -0.25756807911307D+03
 E2 =    -0.8051054954D+00 EUMP2 =    -0.25756816651424D+03
 E2 =    -0.8049689584D+00 EUMP2 =    -0.25756812369427D+03
 E2 =    -0.8050018643D+00 EUMP2 =    -0.25756812375678D+03
 E2 =    -0.8049359349D+00 EUMP2 =    -0.25756812255032D+03
 E2 =    -0.8048847216D+00 EUMP2 =    -0.25756809847294D+03
 E2 =    -0.8050531151D+00 EUMP2 =    -0.25756814701804D+03
 E2 =    -0.8049689359D+00 EUMP2 =    -0.25756812371315D+03
 SCF Done:  E(RHF) =  -256.763147279     A.U. after    7 cycles
 E2 =    -0.8049788048D+00 EUMP2 =    -0.25756812608384D+03
 SCF Done:  E(RHF) =  -256.763161426     A.U. after    8 cycles
 E2 =    -0.8049589403D+00 EUMP2 =    -0.25756812036676D+03
 SCF Done:  E(RHF) =  -256.763152184     A.U. after    8 cycles
 E2 =    -0.8049727535D+00 EUMP2 =    -0.25756812493752D+03
 SCF Done:  E(RHF) =  -256.763157544     A.U. after    9 cycles
 E2 =    -0.8049649867D+00 EUMP2 =    -0.25756812253085D+03
 SCF Done:  E(RHF) =  -256.763154975     A.U. after    7 cycles
 E2 =    -0.8049688752D+00 EUMP2 =    -0.25756812385010D+03
 SCF Done:  E(RHF) =  -256.763156481     A.U. after    8 cycles
 E2 =    -0.8049660776D+00 EUMP2 =    -0.25756812255829D+03
 SCF Done:  E(RHF) =  -256.763153309     A.U. after    8 cycles
 E2 =    -0.8049716959D+00 EUMP2 =    -0.25756812500466D+03
 SCF Done:  E(RHF) =  -256.763135127     A.U. after    7 cycles
 E2 =    -0.8049979604D+00 EUMP2 =    -0.25756813308727D+03
 SCF Done:  E(RHF) =  -256.763173112     A.U. after    9 cycles
 E2 =    -0.8049397802D+00 EUMP2 =    -0.25756811289238D+03
 SCF Done:  E(RHF) =  -256.763154995     A.U. after    6 cycles
 E2 =    -0.8049688712D+00 EUMP2 =    -0.25756812386661D+03

 Alpha  occ. eigenvalues --  -15.69673 -15.67786 -15.66041 -15.61831 -11.34819
 Alpha  occ. eigenvalues --   -1.50231  -1.26376  -1.20243  -0.91503  -0.89602
 Alpha  occ. eigenvalues --   -0.80622  -0.68344  -0.68065  -0.57337  -0.48378
 Alpha  occ. eigenvalues --   -0.47710  -0.45983  -0.42335
 Alpha virt. eigenvalues --    0.05147   0.08218   0.08735   0.10067   0.12947
 Alpha virt. eigenvalues --    0.14750   0.16249   0.17506   0.18927   0.20638
 Alpha virt. eigenvalues --    0.22235   0.23562   0.24626   0.27349   0.28947

 Mulliken charges:
               1
     1  C    0.076800
     2  N   -0.333845
     3  N   -0.000604
     4  N   -0.017218
     5  N   -0.275949
     6  H    0.194916
     7  H    0.355900
 Sum of Mulliken charges =   0.00000

 Dipole moment (field-independent basis, Debye):
    X=              2.6334    Y=              4.9977    Z=              0.0017  Tot=              5.6490
 Quadrupole moment (field-independent basis, Debye-Ang):
   XX=            -29.8109   YY=            -27.3146   ZZ=            -29.2225
   XY=              1.9925   XZ=             -0.0001   YZ=              0.0040

                      1                      2                      3
                     A"                     A"                     A"
 Frequencies --    553.1613               691.2888               728.6701
 Red. masses --      2.0443                 2.0180                 6.2476
 Frc consts  --      0.3686                 0.5682                 1.9545
 IR Inten    --     81.8629                13.8882                12.0683

                      4                      5                      6
                     A"                     A'                     A'
 Frequencies --    857.8029              1000.1847              1032.5820
 Red. masses --      1.2742                 5.2434                 7.3709
 Frc consts  --      0.5524                 3.0905                 4.6304
 IR Inten    --     27.9043                 1.4941                 0.5866

                      7                      8                      9
                     A'                     A'                     A'
 Frequencies --   1105.3096              1129.2967              1184.4749
 Red. masses --      6.0145                 2.7437                 1.7675
 Frc consts  --      4.3293                 2.0616                 1.4610
 IR Inten    --     24.3932                24.6623                12.1150

                     10                     11                     12
                     A'                     A'                     A'
 Frequencies --   1321.7632              1355.5891              1538.0646
 Red. masses --      3.0244                 7.3753                 2.9951
 Frc consts  --      3.1132                 7.9852                 4.1746
 IR Inten    --      0.5749                17.9789                18.4036

                     13                     14                     15
                     A'                     A'                     A'
 Frequencies --   1574.4681              3396.9062              3792.2380
 Red. masses --      3.4265                 1.1015                 1.0840
 Frc consts  --      5.0047                 7.4885                 9.1850
 IR Inten    --     20.5641                 2.0015               127.3210

 - Thermochemistry -
 -------------------
 Temperature   298.150 Kelvin.  Pressure   1.00000 Atm.
 Atom     1 has atomic number  6 and mass  12.00000

 Molecular mass:    70.02795 amu.
 Principal axes and moments of inertia in atomic units:
                           1         2         3
     Eigenvalues --   171.44215 174.37140 345.81355
           X            0.85507   0.51851   0.00000
           Y           -0.51851   0.85507   0.00000
           Z            0.00000   0.00000   1.00000
 This molecule is an asymmetric top.
 Rotational symmetry number  1.
 Rotational temperatures (Kelvin)      0.50521     0.49672     0.25046
 Rotational constants (GHZ):          10.52682    10.34998     5.21883
 Zero-point vibrational energy     127173.8 (Joules/Mol)
                                   30.39527 (Kcal/Mol)
 Warning -- explicit consideration of   1 degrees of freedom as
           vibrations may cause significant error
 Vibrational temperatures:    795.87   994.61  1048.39  1234.19  1439.04
          (Kelvin)           1485.65  1590.29  1624.80  1704.19  1901.72
                             1950.39  2212.93  2265.31  4887.38  5456.18

 Zero-point correction=                           0.048438 (Hartree/Particle)
 Thermal correction to Energy=                    0.051900
 Thermal correction to Enthalpy=                  0.052844
 Thermal correction to Gibbs Free Energy=         0.022340
 Sum of electronic and zero-point Energies=           -257.515761
 Sum of electronic and thermal Energies=              -257.512299
 Sum of electronic and thermal Enthalpies=            -257.511354
 Sum of electronic and thermal Free Energies=         -257.541858

                     E (Thermal)             CV                S
                      KCal/Mol        Cal/Mol-Kelvin    Cal/Mol-Kelvin
 Total                   32.568             11.126             64.201
 Electronic               0.000              0.000              0.000
 Translational            0.889              2.981             38.656
 Rotational               0.889              2.981             23.851
 Vibrational             30.790              5.165              1.694
 Vibration     1          0.909              1.133              0.538

 Optimization completed.
    -- Stationary point found.
 Normal termination of Gaussian 09 at Mon Nov 25 19:48:21 2013.
