 Gaussian 09, Revision D.01,
 Gaussian 09:  EM64L-G09RevD.01 24-Apr-2013

 ------------------------------
 #MP3/cc-pVDZ opt=z-matrix freq
 ------------------------------

 ------------------------------------------------------------------
 1H-tetrazole CH2N4 casno=288948 state=1 config=1 method=62 basis=5
 ------------------------------------------------------------------
 Symbolic Z-matrix:
 Charge =  0 Multiplicity = 1

 SCF Done:  E(RHF) =  -256.780056734     A.U. after   15 cycles
 E2 =    -0.7749059228D+00 EUMP2 =    -0.25755496265635D+03
 SCF Done:  E(RHF) =  -256.775736327     A.U. after   13 cycles
 E2 =    -0.7865509364D+00 EUMP2 =    -0.25756228726342D+03
 SCF Done:  E(RHF) =  -256.775453264     A.U. after   11 cycles
 E2 =    -0.7870300643D+00 EUMP2 =    -0.25756248332870D+03
 SCF Done:  E(RHF) =  -256.775394473     A.U. after   13 cycles
 E2 =    -0.7867033636D+00 EUMP2 =    -0.25756209783658D+03
 SCF Done:  E(RHF) =  -256.775294080     A.U. after   10 cycles
 E2 =    -0.7873101475D+00 EUMP2 =    -0.25756260422752D+03
 SCF Done:  E(RHF) =  -256.775546789     A.U. after   12 cycles
 E2 =    -0.7869506005D+00 EUMP2 =    -0.25756249738906D+03
 SCF Done:  E(RHF) =  -256.775293304     A.U. after   10 cycles
 E2 =    -0.7873357282D+00 EUMP2 =    -0.25756262903183D+03
 SCF Done:  E(RHF) =  -256.775395146     A.U. after   11 cycles
 E2 =    -0.7872310015D+00 EUMP2 =    -0.25756262614710D+03
 SCF Done:  E(RHF) =  -256.775330437     A.U. after    9 cycles
 E2 =    -0.7872963645D+00 EUMP2 =    -0.25756262680137D+03
 SCF Done:  E(RHF) =  -256.775414922     A.U. after   11 cycles
 E2 =    -0.7872197261D+00 EUMP2 =    -0.25756263464848D+03
 E2 =    -0.7873112717D+00 EUMP2 =    -0.25756263514755D+03
 E2 =    -0.7872872773D+00 EUMP2 =    -0.25756264102096D+03
 E2 =    -0.7872959791D+00 EUMP2 =    -0.25756263287534D+03
 E2 =    -0.7872837190D+00 EUMP2 =    -0.25756262813360D+03
 E2 =    -0.7872884961D+00 EUMP2 =    -0.25756263014492D+03
 E2 =    -0.7872536501D+00 EUMP2 =    -0.25756262089633D+03
 E2 =    -0.7872882029D+00 EUMP2 =    -0.25756263005236D+03
 Optimization completed.
    -- Stationary point found.
 Normal termination of Gaussian 09 at Mon Nov 25 19:54:47 2013.

 ---------------------------------------------------------------------
 #N Geom=AllCheck Guess=TCheck SCRF=Check GenChk RMP3(FC)/CC-pVDZ Freq
 ---------------------------------------------------------------------

 Structure from the checkpoint file:  "/tmp/rdj3/g09-31683/Gau-6797.chk"
 ------------------------------------------------------------------
 1H-tetrazole CH2N4 casno=288948 state=1 config=1 method=62 basis=5
 ------------------------------------------------------------------
 Charge =  0 Multiplicity = 1

                         Standard orientation:
 ---------------------------------------------------------------------
 Center     Atomic      Atomic             Coordinates (Angstroms)
 Number     Number       Type             X           Y           Z
 ---------------------------------------------------------------------
      1          6           0        1.069481    0.230116    0.000000
      2          7           0        0.000000    1.055467    0.000000
      3          7           0       -1.116576    0.308505    0.000000
      4          7           0       -0.727187   -0.922880    0.000000
      5          7           0        0.634279   -1.013089    0.000000
      6          1           0        2.105077    0.558347    0.000000
      7          1           0       -0.055568    2.064937    0.000000
 ---------------------------------------------------------------------

 E2 =    -0.7872881969D+00 EUMP2 =    -0.25756263004636D+03
 E2 =    -0.7873434743D+00 EUMP2 =    -0.25756264139336D+03
 E2 =    -0.7872330974D+00 EUMP2 =    -0.25756261536531D+03
 E2 =    -0.7872757981D+00 EUMP2 =    -0.25756263631906D+03
 E2 =    -0.7873006720D+00 EUMP2 =    -0.25756262214956D+03
 E2 =    -0.7871541978D+00 EUMP2 =    -0.25756258698901D+03
 E2 =    -0.7874223369D+00 EUMP2 =    -0.25756267090262D+03
 E2 =    -0.7872882764D+00 EUMP2 =    -0.25756262982645D+03
 E2 =    -0.7873183548D+00 EUMP2 =    -0.25756262931041D+03
 E2 =    -0.7872580916D+00 EUMP2 =    -0.25756262929343D+03
 E2 =    -0.7871971586D+00 EUMP2 =    -0.25756260486123D+03
 E2 =    -0.7873793260D+00 EUMP2 =    -0.25756265292091D+03
 E2 =    -0.7872882568D+00 EUMP2 =    -0.25756262984878D+03
 SCF Done:  E(RHF) =  -256.775325921     A.U. after    7 cycles
 E2 =    -0.7873047724D+00 EUMP2 =    -0.25756263069309D+03
 SCF Done:  E(RHF) =  -256.775356474     A.U. after    7 cycles
 E2 =    -0.7872716239D+00 EUMP2 =    -0.25756262809822D+03
 SCF Done:  E(RHF) =  -256.775336174     A.U. after    7 cycles
 E2 =    -0.7872945600D+00 EUMP2 =    -0.25756263073367D+03
 SCF Done:  E(RHF) =  -256.775347199     A.U. after    8 cycles
 E2 =    -0.7872818443D+00 EUMP2 =    -0.25756262904278D+03
 SCF Done:  E(RHF) =  -256.775341791     A.U. after    6 cycles
 E2 =    -0.7872882058D+00 EUMP2 =    -0.25756262999654D+03
 SCF Done:  E(RHF) =  -256.775343664     A.U. after    6 cycles
 E2 =    -0.7872852755D+00 EUMP2 =    -0.25756262893958D+03
 SCF Done:  E(RHF) =  -256.775339769     A.U. after    7 cycles
 E2 =    -0.7872911640D+00 EUMP2 =    -0.25756263093331D+03
 SCF Done:  E(RHF) =  -256.775317186     A.U. after    7 cycles
 E2 =    -0.7873207838D+00 EUMP2 =    -0.25756263796986D+03
 SCF Done:  E(RHF) =  -256.775364745     A.U. after    8 cycles
 E2 =    -0.7872556037D+00 EUMP2 =    -0.25756262034867D+03
 SCF Done:  E(RHF) =  -256.775341813     A.U. after    6 cycles
 E2 =    -0.7872882004D+00 EUMP2 =    -0.25756263001375D+03

 Alpha  occ. eigenvalues --  -15.68412 -15.66185 -15.64396 -15.60463 -11.34351
 Alpha  occ. eigenvalues --   -1.49293  -1.25463  -1.19243  -0.90405  -0.88636
 Alpha  occ. eigenvalues --   -0.79458  -0.67279  -0.67233  -0.56455  -0.47543
 Alpha  occ. eigenvalues --   -0.46850  -0.45171  -0.41464
 Alpha virt. eigenvalues --    0.13931   0.15615   0.18824   0.19639   0.34649
 Alpha virt. eigenvalues --    0.38115   0.42797   0.48566   0.60055   0.66385
 Alpha virt. eigenvalues --    0.66919   0.75638   0.79677   0.82891   0.87109

 Mulliken charges:
               1
     1  C    0.214674
     2  N   -0.095656
     3  N   -0.055273
     4  N   -0.086585
     5  N   -0.203219
     6  H    0.079462
     7  H    0.146597
 Sum of Mulliken charges =   0.00000

 Dipole moment (field-independent basis, Debye):
    X=              2.4265    Y=              4.7547    Z=              0.0016  Tot=              5.3381
 Quadrupole moment (field-independent basis, Debye-Ang):
   XX=            -29.0805   YY=            -26.5397   ZZ=            -28.3792
   XY=              1.7742   XZ=             -0.0001   YZ=              0.0037

                      1                      2                      3
                     A"                     A"                     A"
 Frequencies --    574.8802               700.4199               748.6488
 Red. masses --      1.8201                 2.0723                 6.8173
 Frc consts  --      0.3544                 0.5990                 2.2512
 IR Inten    --     80.3741                 8.1170                10.1822

                      4                      5                      6
                     A"                     A'                     A'
 Frequencies --    876.3124               997.5503              1032.1466
 Red. masses --      1.3346                 4.3029                 6.7392
 Frc consts  --      0.6038                 2.5228                 4.2300
 IR Inten    --     19.1765                 1.7413                 2.1138

                      7                      8                      9
                     A'                     A'                     A'
 Frequencies --   1102.7311              1123.7693              1169.6806
 Red. masses --      4.4953                 2.3610                 2.0533
 Frc consts  --      3.2207                 1.7567                 1.6551
 IR Inten    --     22.4759                26.4680                10.2269

                     10                     11                     12
                     A'                     A'                     A'
 Frequencies --   1310.1443              1359.2487              1527.2311
 Red. masses --      3.2131                 8.2333                 2.9800
 Frc consts  --      3.2494                 8.9623                 4.0952
 IR Inten    --      0.0179                16.7376                16.9684

                     13                     14                     15
                     A'                     A'                     A'
 Frequencies --   1565.4597              3352.0184              3738.9924
 Red. masses --      4.2926                 1.1019                 1.0847
 Frc consts  --      6.1980                 7.2948                 8.9345
 IR Inten    --     14.3161                 1.5252               121.2192

 - Thermochemistry -
 -------------------
 Temperature   298.150 Kelvin.  Pressure   1.00000 Atm.
 Atom     1 has atomic number  6 and mass  12.00000

 Molecular mass:    70.02795 amu.
 Principal axes and moments of inertia in atomic units:
                           1         2         3
     Eigenvalues --   171.45573 174.98384 346.43957
           X            0.79184   0.61073   0.00000
           Y           -0.61073   0.79184   0.00000
           Z            0.00000   0.00000   1.00000
 This molecule is an asymmetric top.
 Rotational symmetry number  1.
 Rotational temperatures (Kelvin)      0.50517     0.49498     0.25001
 Rotational constants (GHZ):          10.52599    10.31376     5.20940
 Zero-point vibrational energy     126679.9 (Joules/Mol)
                                   30.27723 (Kcal/Mol)
 Warning -- explicit consideration of   1 degrees of freedom as
           vibrations may cause significant error
 Vibrational temperatures:    827.12  1007.75  1077.14  1260.82  1435.25
          (Kelvin)           1485.03  1586.58  1616.85  1682.91  1885.00
                             1955.65  2197.34  2252.34  4822.80  5379.57

 Zero-point correction=                           0.048250 (Hartree/Particle)
 Thermal correction to Energy=                    0.051686
 Thermal correction to Enthalpy=                  0.052631
 Thermal correction to Gibbs Free Energy=         0.022161
 Sum of electronic and zero-point Energies=           -257.513780
 Sum of electronic and thermal Energies=              -257.510343
 Sum of electronic and thermal Enthalpies=            -257.509399
 Sum of electronic and thermal Free Energies=         -257.539869

                     E (Thermal)             CV                S
                      KCal/Mol        Cal/Mol-Kelvin    Cal/Mol-Kelvin
 Total                   32.434             11.027             64.128
 Electronic               0.000              0.000              0.000
 Translational            0.889              2.981             38.656
 Rotational               0.889              2.981             23.856
 Vibrational             30.656              5.065              1.616
 Vibration     1          0.931              1.086              0.495

 Optimization completed.
    -- Stationary point found.
 Normal termination of Gaussian 09 at Mon Nov 25 20:09:10 2013.
