 Gaussian 09, Revision D.01,
 Gaussian 09:  EM64L-G09RevD.01 24-Apr-2013

 ---------------------------
 #MP3/TZVP opt=z-matrix freq
 ---------------------------

 -------------------------------------------------------------------
 1H-tetrazole CH2N4 casno=288948 state=1 config=1 method=62 basis=32
 -------------------------------------------------------------------
 Symbolic Z-matrix:
 Charge =  0 Multiplicity = 1

 SCF Done:  E(RHF) =  -256.833827633     A.U. after   14 cycles
 E2 =    -0.8219230097D+00 EUMP2 =    -0.25765575064234D+03
 SCF Done:  E(RHF) =  -256.830971576     A.U. after   12 cycles
 E2 =    -0.8291586271D+00 EUMP2 =    -0.25766013020339D+03
 SCF Done:  E(RHF) =  -256.830567251     A.U. after   11 cycles
 E2 =    -0.8297957817D+00 EUMP2 =    -0.25766036303300D+03
 SCF Done:  E(RHF) =  -256.830453982     A.U. after   12 cycles
 E2 =    -0.8298299554D+00 EUMP2 =    -0.25766028393693D+03
 SCF Done:  E(RHF) =  -256.830466397     A.U. after    9 cycles
 E2 =    -0.8299685770D+00 EUMP2 =    -0.25766043497434D+03
 SCF Done:  E(RHF) =  -256.830585187     A.U. after   12 cycles
 E2 =    -0.8297871642D+00 EUMP2 =    -0.25766037235171D+03
 SCF Done:  E(RHF) =  -256.830476755     A.U. after    9 cycles
 E2 =    -0.8299619179D+00 EUMP2 =    -0.25766043867306D+03
 SCF Done:  E(RHF) =  -256.830496771     A.U. after   10 cycles
 E2 =    -0.8299528221D+00 EUMP2 =    -0.25766044959351D+03
 SCF Done:  E(RHF) =  -256.830534277     A.U. after   10 cycles
 E2 =    -0.8298777004D+00 EUMP2 =    -0.25766041197740D+03
 SCF Done:  E(RHF) =  -256.830486428     A.U. after    9 cycles
 E2 =    -0.8299515328D+00 EUMP2 =    -0.25766043796038D+03
 E2 =    -0.8299211097D+00 EUMP2 =    -0.25766043065694D+03
 E2 =    -0.8299477148D+00 EUMP2 =    -0.25766044260293D+03
 E2 =    -0.8299239407D+00 EUMP2 =    -0.25766043468125D+03
 E2 =    -0.8299238807D+00 EUMP2 =    -0.25766042983766D+03
 E2 =    -0.8299232086D+00 EUMP2 =    -0.25766043420299D+03
 E2 =    -0.8298991277D+00 EUMP2 =    -0.25766042538515D+03
 E2 =    -0.8299296472D+00 EUMP2 =    -0.25766043578285D+03
 E2 =    -0.8299127945D+00 EUMP2 =    -0.25766043054012D+03
 E2 =    -0.8299298609D+00 EUMP2 =    -0.25766043637719D+03
 E2 =    -0.8299142769D+00 EUMP2 =    -0.25766043215344D+03
 Optimization completed.
    -- Stationary point found.
 Normal termination of Gaussian 09 at Mon Nov 25 18:12:57 2013.

 ------------------------------------------------------------------
 #N Geom=AllCheck Guess=TCheck SCRF=Check GenChk RMP3(FC)/TZVP Freq
 ------------------------------------------------------------------

 Structure from the checkpoint file:  "/tmp/rdj3/g09-31683/Gau-26716.chk"
 -------------------------------------------------------------------
 1H-tetrazole CH2N4 casno=288948 state=1 config=1 method=62 basis=32
 -------------------------------------------------------------------
 Charge =  0 Multiplicity = 1

                         Standard orientation:
 ---------------------------------------------------------------------
 Center     Atomic      Atomic             Coordinates (Angstroms)
 Number     Number       Type             X           Y           Z
 ---------------------------------------------------------------------
      1          6           0        1.063363    0.231401    0.000000
      2          7           0        0.000000    1.050613    0.000000
      3          7           0       -1.113097    0.302050    0.000000
      4          7           0       -0.723733   -0.920230    0.000000
      5          7           0        0.635864   -1.003102    0.000000
      6          1           0        2.086426    0.554493    0.000000
      7          1           0       -0.059840    2.051785    0.000000
 ---------------------------------------------------------------------

 E2 =    -0.8299146492D+00 EUMP2 =    -0.25766043961670D+03
 E2 =    -0.8299304321D+00 EUMP2 =    -0.25766042689860D+03
 E2 =    -0.8297985389D+00 EUMP2 =    -0.25766039033204D+03
 E2 =    -0.8300466088D+00 EUMP2 =    -0.25766047556847D+03
 E2 =    -0.8299225681D+00 EUMP2 =    -0.25766043383238D+03
 E2 =    -0.8299508845D+00 EUMP2 =    -0.25766043444160D+03
 E2 =    -0.8298941718D+00 EUMP2 =    -0.25766043219195D+03
 E2 =    -0.8298436219D+00 EUMP2 =    -0.25766040782321D+03
 E2 =    -0.8300014642D+00 EUMP2 =    -0.25766045794610D+03
 E2 =    -0.8299225467D+00 EUMP2 =    -0.25766043385308D+03
 SCF Done:  E(RHF) =  -256.830503292     A.U. after    7 cycles
 E2 =    -0.8299324711D+00 EUMP2 =    -0.25766043576278D+03
 SCF Done:  E(RHF) =  -256.830518488     A.U. after    7 cycles
 E2 =    -0.8299125054D+00 EUMP2 =    -0.25766043099305D+03
 SCF Done:  E(RHF) =  -256.830508419     A.U. after    7 cycles
 E2 =    -0.8299265120D+00 EUMP2 =    -0.25766043493105D+03
 SCF Done:  E(RHF) =  -256.830514360     A.U. after    8 cycles
 E2 =    -0.8299184533D+00 EUMP2 =    -0.25766043281304D+03
 SCF Done:  E(RHF) =  -256.830511500     A.U. after    6 cycles
 E2 =    -0.8299224879D+00 EUMP2 =    -0.25766043398780D+03
 SCF Done:  E(RHF) =  -256.830513208     A.U. after    6 cycles
 E2 =    -0.8299195222D+00 EUMP2 =    -0.25766043273059D+03
 SCF Done:  E(RHF) =  -256.830509628     A.U. after    7 cycles
 E2 =    -0.8299254761D+00 EUMP2 =    -0.25766043510443D+03
 SCF Done:  E(RHF) =  -256.830491010     A.U. after    7 cycles
 E2 =    -0.8299520932D+00 EUMP2 =    -0.25766044310371D+03
 SCF Done:  E(RHF) =  -256.830530301     A.U. after    8 cycles
 E2 =    -0.8298928740D+00 EUMP2 =    -0.25766042317493D+03
 SCF Done:  E(RHF) =  -256.830511520     A.U. after    6 cycles
 E2 =    -0.8299224862D+00 EUMP2 =    -0.25766043400604D+03

 Alpha  occ. eigenvalues --  -15.68510 -15.66606 -15.64798 -15.60583 -11.33953
 Alpha  occ. eigenvalues --   -1.50572  -1.26274  -1.20375  -0.91304  -0.89594
 Alpha  occ. eigenvalues --   -0.80678  -0.68288  -0.68171  -0.57296  -0.48160
 Alpha  occ. eigenvalues --   -0.47484  -0.45906  -0.42448
 Alpha virt. eigenvalues --    0.11206   0.12511   0.16783   0.17068   0.22164
 Alpha virt. eigenvalues --    0.23685   0.32808   0.33248   0.38624   0.40376
 Alpha virt. eigenvalues --    0.44026   0.47346   0.48748   0.49736   0.51338

 Mulliken charges:
               1
     1  C   -0.106460
     2  N   -0.084129
     3  N   -0.061404
     4  N   -0.077442
     5  N   -0.063188
     6  H    0.133964
     7  H    0.258659
 Sum of Mulliken charges =   0.00000

 Dipole moment (field-independent basis, Debye):
    X=              2.5371    Y=              4.9284    Z=              0.0017  Tot=              5.5431
 Quadrupole moment (field-independent basis, Debye-Ang):
   XX=            -29.5865   YY=            -27.0897   ZZ=            -28.7398
   XY=              1.8984   XZ=             -0.0001   YZ=              0.0039

                      1                      2                      3
                     A"                     A"                     A"
 Frequencies --    474.2259               687.3175               725.1316
 Red. masses --      2.0034                 2.1164                 6.3731
 Frc consts  --      0.2655                 0.5891                 1.9744
 IR Inten    --     72.4567                12.3618                 9.9862

                      4                      5                      6
                     A"                     A'                     A'
 Frequencies --    835.7315               995.2480              1031.0913
 Red. masses --      1.2495                 5.5583                 7.9855
 Frc consts  --      0.5142                 3.2438                 5.0020
 IR Inten    --     30.5194                 1.6788                 1.0078

                      7                      8                      9
                     A'                     A'                     A'
 Frequencies --   1090.9099              1121.5146              1181.4277
 Red. masses --      4.9672                 2.8927                 1.8476
 Frc consts  --      3.4829                 2.1437                 1.5194
 IR Inten    --     25.1760                23.2516                14.0030

                     10                     11                     12
                     A'                     A'                     A'
 Frequencies --   1318.4269              1350.4564              1524.6046
 Red. masses --      2.8862                 7.0734                 2.9644
 Frc consts  --      2.9559                 7.6005                 4.0598
 IR Inten    --      0.5055                18.8158                17.1025

                     13                     14                     15
                     A'                     A'                     A'
 Frequencies --   1570.4328              3363.9284              3755.5935
 Red. masses --      3.3774                 1.1017                 1.0839
 Frc consts  --      4.9076                 7.3454                 9.0076
 IR Inten    --     19.7692                 1.6993               122.2498

 - Thermochemistry -
 -------------------
 Temperature   298.150 Kelvin.  Pressure   1.00000 Atm.
 Atom     1 has atomic number  6 and mass  12.00000

 Molecular mass:    70.02795 amu.
 Principal axes and moments of inertia in atomic units:
                           1         2         3
     Eigenvalues --   169.83214 173.09570 342.92783
           X            0.86890   0.49498   0.00000
           Y           -0.49498   0.86890   0.00000
           Z            0.00000   0.00000   1.00000
 This molecule is an asymmetric top.
 Rotational symmetry number  1.
 Rotational temperatures (Kelvin)      0.51000     0.50038     0.25257
 Rotational constants (GHZ):          10.62662    10.42626     5.26274
 Zero-point vibrational energy     125763.7 (Joules/Mol)
                                   30.05823 (Kcal/Mol)
 Warning -- explicit consideration of   1 degrees of freedom as
           vibrations may cause significant error
 Vibrational temperatures:    682.30   988.90  1043.30  1202.43  1431.94
          (Kelvin)           1483.51  1569.57  1613.61  1699.81  1896.92
                             1943.00  2193.56  2259.50  4839.94  5403.45

 Zero-point correction=                           0.047901 (Hartree/Particle)
 Thermal correction to Energy=                    0.051431
 Thermal correction to Enthalpy=                  0.052376
 Thermal correction to Gibbs Free Energy=         0.021778
 Sum of electronic and zero-point Energies=           -257.605289
 Sum of electronic and thermal Energies=              -257.601758
 Sum of electronic and thermal Enthalpies=            -257.600814
 Sum of electronic and thermal Free Energies=         -257.631412

                     E (Thermal)             CV                S
                      KCal/Mol        Cal/Mol-Kelvin    Cal/Mol-Kelvin
 Total                   32.274             11.384             64.398
 Electronic               0.000              0.000              0.000
 Translational            0.889              2.981             38.656
 Rotational               0.889              2.981             23.826
 Vibrational             30.496              5.422              1.916
 Vibration     1          0.831              1.307              0.726

 Optimization completed.
    -- Stationary point found.
 Normal termination of Gaussian 09 at Mon Nov 25 18:58:33 2013.
