 Gaussian 09, Revision D.01,
 Gaussian 09:  EM64L-G09RevD.01 24-Apr-2013

 --------------------
 #MP3/6-31G* opt freq
 --------------------

 ------------------------------------------------------------------
 1H-tetrazole CH2N4 casno=288948 state=1 config=1 method=62 basis=1
 ------------------------------------------------------------------
 Symbolic Z-matrix:
 Charge =  0 Multiplicity = 1

 SCF Done:  E(RHF) =  -256.754076285     A.U. after   15 cycles
 E2 =    -0.7737063668D+00 EUMP2 =    -0.25752778265216D+03
 SCF Done:  E(RHF) =  -256.750014503     A.U. after   13 cycles
 E2 =    -0.7844921904D+00 EUMP2 =    -0.25753450669332D+03
 SCF Done:  E(RHF) =  -256.749578820     A.U. after   12 cycles
 E2 =    -0.7852097335D+00 EUMP2 =    -0.25753478855374D+03
 SCF Done:  E(RHF) =  -256.749406984     A.U. after   11 cycles
 E2 =    -0.7854979653D+00 EUMP2 =    -0.25753490494949D+03
 SCF Done:  E(RHF) =  -256.749518868     A.U. after   10 cycles
 E2 =    -0.7853568637D+00 EUMP2 =    -0.25753487573171D+03
 Optimization completed.
    -- Stationary point found.
 Normal termination of Gaussian 09 at Tue Dec 17 14:42:27 2013.

 ----------------------------------------------------------------------
 #N Geom=AllCheck Guess=TCheck SCRF=Check GenChk RMP3(FC)/6-31G(d) Freq
 ----------------------------------------------------------------------

 Structure from the checkpoint file:  "/tmp/rdj3/g09-13683/Gau-13739.chk"
 ------------------------------------------------------------------
 1H-tetrazole CH2N4 casno=288948 state=1 config=1 method=62 basis=1
 ------------------------------------------------------------------
 Charge =  0 Multiplicity = 1

                         Standard orientation:
 ---------------------------------------------------------------------
 Center     Atomic      Atomic             Coordinates (Angstroms)
 Number     Number       Type             X           Y           Z
 ---------------------------------------------------------------------
      1          6           0        1.067241    0.234177    0.000000
      2          7           0        0.000000    1.053055    0.000000
      3          7           0       -1.118445    0.304928    0.000000
      4          7           0       -0.724799   -0.926073    0.000000
      5          7           0        0.638151   -1.006948    0.000000
      6          1           0        2.095307    0.560027    0.000000
      7          1           0       -0.063105    2.060171    0.000000
 ---------------------------------------------------------------------

 SCF Done:  E(RHF) =  -256.749518868     A.U. after    1 cycles
 E2 =    -0.7853568620D+00 EUMP2 =    -0.25753487573000D+03
 SCF Done:  E(RHF) =  -256.749481315     A.U. after    9 cycles
 E2 =    -0.7854069771D+00 EUMP2 =    -0.25753488829198D+03
 SCF Done:  E(RHF) =  -256.749552846     A.U. after   10 cycles
 E2 =    -0.7853069619D+00 EUMP2 =    -0.25753485980801D+03
 SCF Done:  E(RHF) =  -256.749490253     A.U. after   10 cycles
 E2 =    -0.7854012307D+00 EUMP2 =    -0.25753489148386D+03
 SCF Done:  E(RHF) =  -256.749544910     A.U. after   11 cycles
 E2 =    -0.7853125052D+00 EUMP2 =    -0.25753485741570D+03
 E2 =    -0.7853569838D+00 EUMP2 =    -0.25753487550511D+03
 E2 =    -0.7853684184D+00 EUMP2 =    -0.25753487756504D+03
 E2 =    -0.7853453857D+00 EUMP2 =    -0.25753487165482D+03
 E2 =    -0.7853778192D+00 EUMP2 =    -0.25753487455792D+03
 E2 =    -0.7853361022D+00 EUMP2 =    -0.25753487314534D+03
 E2 =    -0.7853569204D+00 EUMP2 =    -0.25753487557092D+03
 E2 =    -0.7852630818D+00 EUMP2 =    -0.25753485033743D+03
 E2 =    -0.7854508223D+00 EUMP2 =    -0.25753489913653D+03
 E2 =    -0.7854691988D+00 EUMP2 =    -0.25753491402531D+03
 E2 =    -0.7852445741D+00 EUMP2 =    -0.25753483551229D+03
 E2 =    -0.7853440127D+00 EUMP2 =    -0.25753488230304D+03
 E2 =    -0.7853698134D+00 EUMP2 =    -0.25753486756313D+03
 E2 =    -0.7852217656D+00 EUMP2 =    -0.25753483211053D+03
 E2 =    -0.7854921278D+00 EUMP2 =    -0.25753491717881D+03
 E2 =    -0.7853569510D+00 EUMP2 =    -0.25753487552045D+03
 E2 =    -0.7853891019D+00 EUMP2 =    -0.25753487448755D+03
 E2 =    -0.7853246920D+00 EUMP2 =    -0.25753487548404D+03
 E2 =    -0.7852734803D+00 EUMP2 =    -0.25753485106030D+03
 E2 =    -0.7854403671D+00 EUMP2 =    -0.25753489809558D+03
 E2 =    -0.7853569302D+00 EUMP2 =    -0.25753487554183D+03
 SCF Done:  E(RHF) =  -256.749502717     A.U. after    7 cycles
 E2 =    -0.7853736858D+00 EUMP2 =    -0.25753487640258D+03
 SCF Done:  E(RHF) =  -256.749533687     A.U. after    8 cycles
 E2 =    -0.7853400667D+00 EUMP2 =    -0.25753487375403D+03
 SCF Done:  E(RHF) =  -256.749513759     A.U. after    8 cycles
 E2 =    -0.7853626494D+00 EUMP2 =    -0.25753487640883D+03
 SCF Done:  E(RHF) =  -256.749523639     A.U. after    9 cycles
 E2 =    -0.7853511000D+00 EUMP2 =    -0.25753487473859D+03
 SCF Done:  E(RHF) =  -256.749518808     A.U. after    7 cycles
 E2 =    -0.7853568801D+00 EUMP2 =    -0.25753487568822D+03
 SCF Done:  E(RHF) =  -256.749521502     A.U. after    7 cycles
 E2 =    -0.7853531007D+00 EUMP2 =    -0.25753487460237D+03
 SCF Done:  E(RHF) =  -256.749515953     A.U. after    8 cycles
 E2 =    -0.7853606861D+00 EUMP2 =    -0.25753487663949D+03
 SCF Done:  E(RHF) =  -256.749490886     A.U. after    7 cycles
 E2 =    -0.7853922032D+00 EUMP2 =    -0.25753488308911D+03
 SCF Done:  E(RHF) =  -256.749545079     A.U. after    8 cycles
 E2 =    -0.7853215457D+00 EUMP2 =    -0.25753486662489D+03
 SCF Done:  E(RHF) =  -256.749518829     A.U. after    6 cycles
 E2 =    -0.7853568747D+00 EUMP2 =    -0.25753487570382D+03

 Alpha  occ. eigenvalues --  -15.68961 -15.66893 -15.65099 -15.60846 -11.34189
 Alpha  occ. eigenvalues --   -1.49445  -1.25571  -1.19508  -0.90679  -0.88907
 Alpha  occ. eigenvalues --   -0.79956  -0.67593  -0.67470  -0.56720  -0.47718
 Alpha  occ. eigenvalues --   -0.47052  -0.45317  -0.41723
 Alpha virt. eigenvalues --    0.13979   0.18873   0.19693   0.25147   0.36783
 Alpha virt. eigenvalues --    0.38227   0.47560   0.49984   0.64845   0.73702
 Alpha virt. eigenvalues --    0.73893   0.82410   0.82742   0.89555   0.91831

 Mulliken charges:
               1
     1  C    0.233758
     2  N   -0.469061
     3  N   -0.028047
     4  N   -0.082263
     5  N   -0.301856
     6  H    0.236492
     7  H    0.410977
 Sum of Mulliken charges =   0.00000

 Dipole moment (field-independent basis, Debye):
    X=              2.5595    Y=              4.9223    Z=              0.0018  Tot=              5.5480
 Quadrupole moment (field-independent basis, Debye-Ang):
   XX=            -28.9670   YY=            -26.4568   ZZ=            -28.5481
   XY=              1.8687   XZ=             -0.0001   YZ=              0.0041

                      1                      2                      3
                     A"                     A"                     A"
 Frequencies --    580.0274               700.9585               745.7632
 Red. masses --      1.8967                 1.9953                 7.0484
 Frc consts  --      0.3760                 0.5776                 2.3096
 IR Inten    --     99.1286                11.9008                10.9015

                      4                      5                      6
                     A"                     A'                     A'
 Frequencies --    863.3799              1003.5452              1037.3885
 Red. masses --      1.3184                 5.0720                 7.1807
 Frc consts  --      0.5790                 3.0096                 4.5530
 IR Inten    --     22.8175                 1.7924                 1.5514

                      7                      8                      9
                     A'                     A'                     A'
 Frequencies --   1108.7479              1132.0349              1189.9770
 Red. masses --      5.9191                 2.6520                 1.7545
 Frc consts  --      4.2872                 2.0024                 1.4638
 IR Inten    --     21.5417                27.5665                12.7382

                     10                     11                     12
                     A'                     A'                     A'
 Frequencies --   1323.8481              1358.6164              1537.2023
 Red. masses --      2.9179                 8.1231                 2.9809
 Frc consts  --      3.0130                 8.8341                 4.1502
 IR Inten    --      0.2975                18.5494                19.4358

                     13                     14                     15
                     A'                     A'                     A'
 Frequencies --   1575.4696              3361.0098              3729.0440
 Red. masses --      3.8255                 1.1020                 1.0842
 Frc consts  --      5.5944                 7.3343                 8.8833
 IR Inten    --     18.5808                 1.3789               118.6086

 - Thermochemistry -
 -------------------
 Temperature   298.150 Kelvin.  Pressure   1.00000 Atm.
 Atom     1 has atomic number  6 and mass  12.00000

 Molecular mass:    70.02795 amu.
 Principal axes and moments of inertia in atomic units:
                           1         2         3
     Eigenvalues --   171.24042 174.46336 345.70378
           X            0.85632   0.51645   0.00000
           Y           -0.51645   0.85632   0.00000
           Z            0.00000   0.00000   1.00000
 This molecule is an asymmetric top.
 Rotational symmetry number  1.
 Rotational temperatures (Kelvin)      0.50580     0.49646     0.25054
 Rotational constants (GHZ):          10.53922    10.34453     5.22048
 Zero-point vibrational energy     127085.4 (Joules/Mol)
                                   30.37413 (Kcal/Mol)
 Warning -- explicit consideration of   1 degrees of freedom as
           vibrations may cause significant error
 Vibrational temperatures:    834.53  1008.52  1072.99  1242.21  1443.88
          (Kelvin)           1492.57  1595.24  1628.74  1712.11  1904.72
                             1954.74  2211.69  2266.75  4835.74  5365.26

 Zero-point correction=                           0.048404 (Hartree/Particle)
 Thermal correction to Energy=                    0.051836
 Thermal correction to Enthalpy=                  0.052781
 Thermal correction to Gibbs Free Energy=         0.022320
 Sum of electronic and zero-point Energies=           -257.483789
 Sum of electronic and thermal Energies=              -257.480357
 Sum of electronic and thermal Enthalpies=            -257.479413
 Sum of electronic and thermal Free Energies=         -257.509873

                     E (Thermal)             CV                S
                      KCal/Mol        Cal/Mol-Kelvin    Cal/Mol-Kelvin
 Total                   32.528             10.991             64.109
 Electronic               0.000              0.000              0.000
 Translational            0.889              2.981             38.656
 Rotational               0.889              2.981             23.850
 Vibrational             30.750              5.029              1.603
 Vibration     1          0.937              1.074              0.485

 Optimization completed.
    -- Stationary point found.
 Normal termination of Gaussian 09 at Tue Dec 17 14:55:46 2013.
