 Gaussian 09, Revision D.01,
 Gaussian 09:  EM64L-G09RevD.01 24-Apr-2013

 --------------------------------------
 #CCSD(T)=FULL/6-31G* opt=z-matrix freq
 --------------------------------------

 ------------------------------------------------------------------
 1H-tetrazole CH2N4 casno=288948 state=1 config=1 method=63 basis=1
 ------------------------------------------------------------------
 Symbolic Z-matrix:
 Charge =  0 Multiplicity = 1

 SCF Done:  E(RHF) =  -256.754076285     A.U. after   15 cycles
 E2 =    -0.7928445395D+00 EUMP2 =    -0.25754692082486D+03
 CCSD(T)= -0.25758810695D+03
 SCF Done:  E(RHF) =  -256.754076214     A.U. after    8 cycles
 E2 =    -0.7928551051D+00 EUMP2 =    -0.25754693131882D+03
 CCSD(T)= -0.25758811994D+03
 SCF Done:  E(RHF) =  -256.754076247     A.U. after    8 cycles
 E2 =    -0.7928339812D+00 EUMP2 =    -0.25754691022807D+03
 CCSD(T)= -0.25758809386D+03
 SCF Done:  E(RHF) =  -256.754076250     A.U. after    8 cycles
 E2 =    -0.7928689487D+00 EUMP2 =    -0.25754694519913D+03
 CCSD(T)= -0.25758813029D+03
 SCF Done:  E(RHF) =  -256.754076203     A.U. after    9 cycles
 E2 =    -0.7928201343D+00 EUMP2 =    -0.25754689633723D+03
 CCSD(T)= -0.25758808350D+03
 SCF Done:  E(RHF) =  -256.754076251     A.U. after    7 cycles
 E2 =    -0.7928625424D+00 EUMP2 =    -0.25754693879304D+03
 CCSD(T)= -0.25758812538D+03
 SCF Done:  E(RHF) =  -256.754076212     A.U. after    8 cycles
 E2 =    -0.7928265543D+00 EUMP2 =    -0.25754690276644D+03
 CCSD(T)= -0.25758808843D+03
 SCF Done:  E(RHF) =  -256.754076240     A.U. after    8 cycles
 E2 =    -0.7928613648D+00 EUMP2 =    -0.25754693760457D+03
 CCSD(T)= -0.25758812494D+03
 SCF Done:  E(RHF) =  -256.754076223     A.U. after    9 cycles
 E2 =    -0.7928277294D+00 EUMP2 =    -0.25754690395225D+03
 CCSD(T)= -0.25758808887D+03
 SCF Done:  E(RHF) =  -256.754076245     A.U. after    8 cycles
 E2 =    -0.7928479934D+00 EUMP2 =    -0.25754692423797D+03
 Normal termination of Gaussian 09 at Wed Nov 27 09:24:46 2013.

 ----------------------------------------------------------------------
 #N Geom=AllCheck Guess=TCheck SCRF=Check GenChk RCCSD(T)-Full/6-31G(d)
  Freq
 ----------------------------------------------------------------------

 Structure from the checkpoint file:  "/tmp/rdj3/g09-31683/Gau-31495.chk"
 ------------------------------------------------------------------
 1H-tetrazole CH2N4 casno=288948 state=1 config=1 method=63 basis=1
 ------------------------------------------------------------------
 Charge =  0 Multiplicity = 1

                         Standard orientation:
 ---------------------------------------------------------------------
 Center     Atomic      Atomic             Coordinates (Angstroms)
 Number     Number       Type             X           Y           Z
 ---------------------------------------------------------------------
      1          6           0        1.071584    0.238599    0.000000
      2          7           0        0.000000    1.059682    0.000000
      3          7           0       -1.129328    0.304617    0.000000
      4          7           0       -0.727102   -0.933806    0.000000
      5          7           0        0.646820   -1.012270    0.000000
      6          1           0        2.102056    0.569139    0.000000
      7          1           0       -0.064290    2.071704    0.000000
 ---------------------------------------------------------------------

 SCF Done:  E(RHF) =  -256.745528964     A.U. after   11 cycles
 CCSD(T)= -0.25759499650D+03
 SCF Done:  E(RHF) =  -256.746375049     A.U. after   11 cycles
 E2 =    -0.8075742650D+00 EUMP2 =    -0.25755394931392D+03
 CCSD(T)= -0.25759499326D+03
 SCF Done:  E(RHF) =  -256.745642032     A.U. after   11 cycles
 E2 =    -0.8083012697D+00 EUMP2 =    -0.25755394330123D+03
 CCSD(T)= -0.25759501061D+03
 SCF Done:  E(RHF) =  -256.746285520     A.U. after   11 cycles
 E2 =    -0.8076742784D+00 EUMP2 =    -0.25755395979830D+03
 CCSD(T)= -0.25759500588D+03
 SCF Done:  E(RHF) =  -256.746019103     A.U. after   10 cycles
 E2 =    -0.8079960923D+00 EUMP2 =    -0.25755401519525D+03
 CCSD(T)= -0.25759507208D+03
 SCF Done:  E(RHF) =  -256.746033549     A.U. after   10 cycles
 E2 =    -0.8079871406D+00 EUMP2 =    -0.25755402069011D+03
 CCSD(T)= -0.25759507852D+03
 SCF Done:  E(RHF) =  -256.746026719     A.U. after   10 cycles
 E2 =    -0.8079927698D+00 EUMP2 =    -0.25755401948849D+03
 CCSD(T)= -0.25759507637D+03
 SCF Done:  E(RHF) =  -256.746017424     A.U. after   10 cycles
 E2 =    -0.8079927890D+00 EUMP2 =    -0.25755401021340D+03
 CCSD(T)= -0.25759506738D+03
 SCF Done:  E(RHF) =  -256.746021500     A.U. after   11 cycles
 E2 =    -0.8079910886D+00 EUMP2 =    -0.25755401258896D+03
 CCSD(T)= -0.25759507012D+03
 SCF Done:  E(RHF) =  -256.746044852     A.U. after   10 cycles
 E2 =    -0.8079859055D+00 EUMP2 =    -0.25755403075790D+03
 CCSD(T)= -0.25759508774D+03

 Alpha  occ. eigenvalues --  -15.69033 -15.67207 -15.65467 -15.61123 -11.34509
 Alpha  occ. eigenvalues --   -1.48447  -1.25031  -1.19165  -0.90375  -0.88555
 Alpha  occ. eigenvalues --   -0.79589  -0.67247  -0.66921  -0.56637  -0.47748
 Alpha  occ. eigenvalues --   -0.47279  -0.45124  -0.41611
 Alpha virt. eigenvalues --    0.13571   0.18447   0.19574   0.24928   0.36482
 Alpha virt. eigenvalues --    0.37400   0.46965   0.49660   0.63814   0.73512
 Alpha virt. eigenvalues --    0.73979   0.82378   0.82423   0.89146   0.91470

 Mulliken charges:
               1
     1  C    0.306990
     2  N   -0.550811
     3  N   -0.027386
     4  N   -0.065006
     5  N   -0.358589
     6  H    0.260212
     7  H    0.434588
 Sum of Mulliken charges =   0.00000

 Dipole moment (field-independent basis, Debye):
    X=              2.7256    Y=              5.0183    Z=              0.0268  Tot=              5.7108
 Quadrupole moment (field-independent basis, Debye-Ang):
   XX=            -28.6768   YY=            -26.5167   ZZ=            -28.9405
   XY=              2.1274   XZ=              0.0194   YZ=              0.0493

                      1                      2                      3
                     A"                     A"                     A"
 Frequencies --    551.2935               683.3521               725.0859
 Red. masses --      1.8345                 2.0412                 7.4454
 Frc consts  --      0.3285                 0.5616                 2.3063
 IR Inten    --      0.0000                 0.0000                 0.0000

                      4                      5                      6
                     A"                     A'                     A'
 Frequencies --    835.8979               961.2066              1007.5250
 Red. masses --      1.3156                 5.5118                 6.6752
 Frc consts  --      0.5416                 3.0004                 3.9923
 IR Inten    --      0.0000                 0.0000                 0.0000

                      7                      8                      9
                     A'                     A'                     A'
 Frequencies --   1055.0766              1070.1419              1161.4532
 Red. masses --      6.0467                 3.3442                 1.7403
 Frc consts  --      3.9658                 2.2565                 1.3832
 IR Inten    --      0.0000                 0.0000                 0.0000

                     10                     11                     12
                     A'                     A'                     A'
 Frequencies --   1275.0391              1283.8015              1482.9571
 Red. masses --      2.4427                10.0745                 2.9576
 Frc consts  --      2.3397                 9.7829                 3.8322
 IR Inten    --      0.0000                 0.0000                 0.0000

                     13                     14                     15
                     A'                     A'                     A'
 Frequencies --   1517.5745              3308.5759              3653.2463
 Red. masses --      3.3595                 1.1012                 1.0841
 Frc consts  --      4.5585                 7.1025                 8.5247
 IR Inten    --      0.0000                 0.0000                 0.0000

 - Thermochemistry -
 -------------------
 Temperature   298.150 Kelvin.  Pressure   1.00000 Atm.
 Atom     1 has atomic number  6 and mass  12.00000

 Molecular mass:    70.02795 amu.
 Principal axes and moments of inertia in atomic units:
                           1         2         3
     Eigenvalues --   173.48627 176.90437 350.39064
           X            0.86617   0.49975   0.00000
           Y           -0.49975   0.86617   0.00000
           Z            0.00000   0.00000   1.00000
 This molecule is an asymmetric top.
 Rotational symmetry number  1.
 Rotational temperatures (Kelvin)      0.49925     0.48961     0.24719
 Rotational constants (GHZ):          10.40279    10.20179     5.15065
 Zero-point vibrational energy     123049.2 (Joules/Mol)
                                   29.40947 (Kcal/Mol)
 Warning -- explicit consideration of   1 degrees of freedom as
           vibrations may cause significant error
 Vibrational temperatures:    793.19   983.19  1043.24  1202.67  1382.96
          (Kelvin)           1449.60  1518.02  1539.69  1671.07  1834.49
                             1847.10  2133.64  2183.45  4760.30  5256.20

 Zero-point correction=                           0.046867 (Hartree/Particle)
 Thermal correction to Energy=                    0.050370
 Thermal correction to Enthalpy=                  0.051314
 Thermal correction to Gibbs Free Energy=         0.020740
 Sum of electronic and zero-point Energies=           -257.548227
 Sum of electronic and thermal Energies=              -257.544724
 Sum of electronic and thermal Enthalpies=            -257.543780
 Sum of electronic and thermal Free Energies=         -257.574354

                     E (Thermal)             CV                S
                      KCal/Mol        Cal/Mol-Kelvin    Cal/Mol-Kelvin
 Total                   31.607             11.452             64.349
 Electronic               0.000              0.000              0.000
 Translational            0.889              2.981             38.656
 Rotational               0.889              2.981             23.890
 Vibrational             29.830              5.490              1.803
 Vibration     1          0.907              1.137              0.541

 Optimization completed.
    -- Stationary point found.
 7.5600518\CCSD=-257.5587886\CCSD(T)=-257.5950938\RMSD=9.657e-09\RMSF=1
 Normal termination of Gaussian 09 at Wed Nov 27 17:18:03 2013.
