 Gaussian 09, Revision D.01,
 Gaussian 09:  EM64L-G09RevD.01 24-Apr-2013

 -----
 #G3B3
 -----

 ------------------------------------------------------------------
 1H-tetrazole CH2N4 casno=288948 state=1 config=1 method=64 basis=0
 ------------------------------------------------------------------
 Symbolic Z-matrix:
 Charge =  0 Multiplicity = 1

 SCF Done:  E(RB3LYP) =  -258.246267835     A.U. after   14 cycles
 SCF Done:  E(RB3LYP) =  -258.250818224     A.U. after   13 cycles
 SCF Done:  E(RB3LYP) =  -258.250892729     A.U. after   10 cycles
 SCF Done:  E(RB3LYP) =  -258.250898917     A.U. after    9 cycles
 SCF Done:  E(RB3LYP) =  -258.250904245     A.U. after    9 cycles
 Optimization completed.
    -- Stationary point found.
 Normal termination of Gaussian 09 at Thu Dec  5 09:02:47 2013.

 ------------------------------------------------------------
 #N Geom=AllCheck Guess=TCheck SCRF=Check B3LYP/6-31G(d) Freq
 ------------------------------------------------------------

 Structure from the checkpoint file:  "/tmp/rdj3/g09-31683/Gau-31480.chk"
 ------------------------------------------------------------------
 1H-tetrazole CH2N4 casno=288948 state=1 config=1 method=64 basis=0
 ------------------------------------------------------------------
 Charge =  0 Multiplicity = 1

 SCF Done:  E(RB3LYP) =  -258.250904245     A.U. after    1 cycles

  Exact polarizability:  37.540   0.999  37.139   0.000   0.000  15.530
 Approx polarizability:  66.086   0.273  70.439   0.000   0.000  23.966

                      1                      2                      3
                     A"                     A"                     A"
 Frequencies --    565.3243               690.5669               737.2139
 Red. masses --      1.7210                 2.0490                 8.4744
 Frc consts  --      0.3241                 0.5757                 2.7136
 IR Inten    --     91.7879                 8.2742                 7.8882

                      4                      5                      6
                     A"                     A'                     A'
 Frequencies --    848.5548               968.5560              1010.4952
 Red. masses --      1.3482                 5.1104                 6.2920
 Frc consts  --      0.5719                 2.8246                 3.7853
 IR Inten    --     17.0358                 4.2991                 0.1650

                      7                      8                      9
                     A'                     A'                     A'
 Frequencies --   1045.0241              1069.0342              1151.4313
 Red. masses --      4.9573                 3.6459                 1.8963
 Frc consts  --      3.1897                 2.4550                 1.4812
 IR Inten    --     16.7179                28.3708                15.6635

                     10                     11                     12
                     A'                     A'                     A'
 Frequencies --   1272.5754              1300.3358              1466.3548
 Red. masses --      2.2870                10.9363                 3.1521
 Frc consts  --      2.1822                10.8951                 3.9932
 IR Inten    --      2.9753                16.1314                 9.2411

                     13                     14                     15
                     A'                     A'                     A'
 Frequencies --   1517.6344              3309.0783              3652.3621
 Red. masses --      3.2348                 1.1002                 1.0836
 Frc consts  --      4.3896                 7.0979                 8.5163
 IR Inten    --     18.4318                 0.6797                79.5180

 - Thermochemistry -
 -------------------
 Temperature   298.150 Kelvin.  Pressure   1.00000 Atm.
 Atom     1 has atomic number  6 and mass  12.00000

 Molecular mass:    70.02795 amu.
 Principal axes and moments of inertia in atomic units:
                           1         2         3
     Eigenvalues --   171.95287 175.14903 347.10190
           X            0.88790   0.46003   0.00000
           Y           -0.46003   0.88790   0.00000
           Z            0.00000   0.00000   1.00000
 This molecule is an asymmetric top.
 Rotational symmetry number  1.
 Rotational temperatures (Kelvin)      0.50371     0.49451     0.24953
 Rotational constants (GHZ):          10.49556    10.30403     5.19946
 Zero-point vibrational energy     123242.5 (Joules/Mol)
                                   29.45567 (Kcal/Mol)
 Warning -- explicit consideration of   1 degrees of freedom as
           vibrations may cause significant error
 Vibrational temperatures:    813.37   993.57  1060.69  1220.88  1393.53
          (Kelvin)           1453.88  1503.55  1538.10  1656.65  1830.95
                             1870.89  2109.75  2183.53  4761.02  5254.93

 Zero-point correction=                           0.046941 (Hartree/Particle)
 Thermal correction to Energy=                    0.050424
 Thermal correction to Enthalpy=                  0.051368
 Thermal correction to Gibbs Free Energy=         0.020835
 Sum of electronic and zero-point Energies=           -258.203964
 Sum of electronic and thermal Energies=              -258.200480
 Sum of electronic and thermal Enthalpies=            -258.199536
 Sum of electronic and thermal Free Energies=         -258.230069

                     E (Thermal)             CV                S
                      KCal/Mol        Cal/Mol-Kelvin    Cal/Mol-Kelvin
 Total                   31.642             11.369             64.262
 Electronic               0.000              0.000              0.000
 Translational            0.889              2.981             38.656
 Rotational               0.889              2.981             23.862
 Vibrational             29.864              5.408              1.744
 Vibration     1          0.921              1.106              0.513

 Optimization completed.
    -- Stationary point found.
 Normal termination of Gaussian 09 at Thu Dec  5 09:02:55 2013.

 ------------------------------------------------------------------
 #N Geom=AllCheck Guess=TCheck SCRF=Check QCISD(T,E4T,FrzG3)/GTBas1
 ------------------------------------------------------------------

 Structure from the checkpoint file:  "/tmp/rdj3/g09-31683/Gau-31480.chk"
 ------------------------------------------------------------------
 1H-tetrazole CH2N4 casno=288948 state=1 config=1 method=64 basis=0
 ------------------------------------------------------------------
 Charge =  0 Multiplicity = 1

 SCF Done:  E(RHF) =  -256.748793699     A.U. after   15 cycles
 E2 =    -0.7861693104D+00 EUMP2 =    -0.25753496300984D+03
 Normal termination of Gaussian 09 at Thu Dec  5 09:03:21 2013.

 ---------------------------------------------------------
 #N Geom=AllCheck Guess=TCheck SCRF=Check MP4=FrzG3/GTBas2
 ---------------------------------------------------------

 Structure from the checkpoint file:  "/tmp/rdj3/g09-31683/Gau-31480.chk"
 ------------------------------------------------------------------
 1H-tetrazole CH2N4 casno=288948 state=1 config=1 method=64 basis=0
 ------------------------------------------------------------------
 Charge =  0 Multiplicity = 1

 SCF Done:  E(RHF) =  -256.756471720     A.U. after   13 cycles
 E2 =    -0.7952172293D+00 EUMP2 =    -0.25755168894953D+03
 Normal termination of Gaussian 09 at Thu Dec  5 09:03:40 2013.

 ---------------------------------------------------------
 #N Geom=AllCheck Guess=TCheck SCRF=Check MP4=FrzG3/GTBas3
 ---------------------------------------------------------

 Structure from the checkpoint file:  "/tmp/rdj3/g09-31683/Gau-31480.chk"
 ------------------------------------------------------------------
 1H-tetrazole CH2N4 casno=288948 state=1 config=1 method=64 basis=0
 ------------------------------------------------------------------
 Charge =  0 Multiplicity = 1

 SCF Done:  E(RHF) =  -256.775968840     A.U. after   12 cycles
 E2 =    -0.9177643303D+00 EUMP2 =    -0.25769373316982D+03
 Normal termination of Gaussian 09 at Thu Dec  5 09:05:23 2013.

 ---------------------------------------------------------
 #N Geom=AllCheck Guess=TCheck SCRF=Check MP2=Full/GTLarge
 ---------------------------------------------------------

 Structure from the checkpoint file:  "/tmp/rdj3/g09-31683/Gau-31480.chk"
 ------------------------------------------------------------------
 1H-tetrazole CH2N4 casno=288948 state=1 config=1 method=64 basis=0
 ------------------------------------------------------------------
 Charge =  0 Multiplicity = 1

                         Standard orientation:
 ---------------------------------------------------------------------
 Center     Atomic      Atomic             Coordinates (Angstroms)
 Number     Number       Type             X           Y           Z
 ---------------------------------------------------------------------
      1          6           0        1.069087    0.235751    0.000000
      2          7           0        0.000000    1.056199    0.000000
      3          7           0       -1.123430    0.301177    0.000000
      4          7           0       -0.724114   -0.927317    0.000000
      5          7           0        0.640614   -1.007723    0.000000
      6          1           0        2.097515    0.564116    0.000000
      7          1           0       -0.063525    2.065021    0.000000
 ---------------------------------------------------------------------

 SCF Done:  E(RHF) =  -256.836503050     A.U. after   14 cycles
 E2 =    -0.1177949036D+01 EUMP2 =    -0.25801445208550D+03

 The electronic state is 1-A'.
 Alpha  occ. eigenvalues --  -15.68294 -15.66695 -15.65087 -15.60670 -11.34100
 Alpha  occ. eigenvalues --   -1.49194  -1.25506  -1.19643  -0.90844  -0.88935
 Alpha  occ. eigenvalues --   -0.79979  -0.67775  -0.67702  -0.57190  -0.48179
 Alpha  occ. eigenvalues --   -0.47650  -0.45728  -0.42144
 Alpha virt. eigenvalues --    0.02449   0.04973   0.08734   0.09535   0.11417
 Alpha virt. eigenvalues --    0.12819   0.14868   0.16721   0.16982   0.18814
 Alpha virt. eigenvalues --    0.19617   0.20261   0.21748   0.22956   0.24431

 Mulliken charges:
               1
     1  C    0.108732
     2  N   -0.137931
     3  N   -0.037050
     4  N    0.002042
     5  N   -0.322519
     6  H    0.161635
     7  H    0.225091
 Sum of Mulliken charges =   0.00000

 Dipole moment (field-independent basis, Debye):
    X=              2.6855    Y=              4.9417    Z=              0.0000  Tot=              5.6243
 Quadrupole moment (field-independent basis, Debye-Ang):
   XX=            -28.9792   YY=            -26.7578   ZZ=            -29.1828
   XY=              2.1300   XZ=              0.0000   YZ=              0.0000

 Normal termination of Gaussian 09 at Thu Dec  5 09:06:23 2013.
