 Gaussian 09, Revision D.01,
 Gaussian 09:  EM64L-G09RevD.01 24-Apr-2013

 -----------------------------------
 #CCSD=FULL/6-31G* opt=z-matrix freq
 -----------------------------------

 ------------------------------------------------------------------
 1H-tetrazole CH2N4 casno=288948 state=1 config=1 method=65 basis=1
 ------------------------------------------------------------------
 Symbolic Z-matrix:
 Charge =  0 Multiplicity = 1

 SCF Done:  E(RHF) =  -256.754076285     A.U. after   15 cycles
 E2 =    -0.7928445395D+00 EUMP2 =    -0.25754692082486D+03
 SCF Done:  E(RHF) =  -256.749668676     A.U. after   13 cycles
 E2 =    -0.8036762599D+00 EUMP2 =    -0.25755334493570D+03
 SCF Done:  E(RHF) =  -256.749081164     A.U. after   11 cycles
 E2 =    -0.8045211003D+00 EUMP2 =    -0.25755360226470D+03
 SCF Done:  E(RHF) =  -256.749253497     A.U. after   11 cycles
 E2 =    -0.8044589263D+00 EUMP2 =    -0.25755371242349D+03
 SCF Done:  E(RHF) =  -256.748896123     A.U. after   11 cycles
 E2 =    -0.8048149170D+00 EUMP2 =    -0.25755371104037D+03
 SCF Done:  E(RHF) =  -256.749359590     A.U. after   11 cycles
 E2 =    -0.8043221405D+00 EUMP2 =    -0.25755368173091D+03
 SCF Done:  E(RHF) =  -256.748936334     A.U. after   10 cycles
 E2 =    -0.8047742871D+00 EUMP2 =    -0.25755371062120D+03
 SCF Done:  E(RHF) =  -256.749023649     A.U. after   10 cycles
 E2 =    -0.8046430234D+00 EUMP2 =    -0.25755366667254D+03
 SCF Done:  E(RHF) =  -256.748989184     A.U. after    9 cycles
 E2 =    -0.8046979642D+00 EUMP2 =    -0.25755368714850D+03
 SCF Done:  E(RHF) =  -256.749093023     A.U. after   10 cycles
 E2 =    -0.8046001125D+00 EUMP2 =    -0.25755369313589D+03
 E2 =    -0.8046969970D+00 EUMP2 =    -0.25755369002357D+03
 E2 =    -0.8046828861D+00 EUMP2 =    -0.25755368796335D+03
 E2 =    -0.8046852119D+00 EUMP2 =    -0.25755368603528D+03
 E2 =    -0.8045650930D+00 EUMP2 =    -0.25755367802606D+03
 E2 =    -0.8046874883D+00 EUMP2 =    -0.25755368557247D+03
 E2 =    -0.8046828147D+00 EUMP2 =    -0.25755368729326D+03
 E2 =    -0.8046954198D+00 EUMP2 =    -0.25755369696325D+03
 E2 =    -0.8046786397D+00 EUMP2 =    -0.25755368601062D+03
 E2 =    -0.8046603569D+00 EUMP2 =    -0.25755368781983D+03
 E2 =    -0.8046775736D+00 EUMP2 =    -0.25755368568016D+03
 Optimization completed.
    -- Stationary point found.
 Normal termination of Gaussian 09 at Thu Dec  5 18:59:02 2013.

 ----------------------------------------------------------------------
 #N Geom=AllCheck Guess=TCheck SCRF=Check GenChk RCCSD-Full/6-31G(d) Fr
 eq
 ----------------------------------------------------------------------

 Structure from the checkpoint file:  "/tmp/rdj3/g09-31683/Gau-4391.chk"
 ------------------------------------------------------------------
 1H-tetrazole CH2N4 casno=288948 state=1 config=1 method=65 basis=1
 ------------------------------------------------------------------
 Charge =  0 Multiplicity = 1

                         Standard orientation:
 ---------------------------------------------------------------------
 Center     Atomic      Atomic             Coordinates (Angstroms)
 Number     Number       Type             X           Y           Z
 ---------------------------------------------------------------------
      1          6           0        1.067143    0.235595    0.000000
      2          7           0        0.000000    1.055135    0.000000
      3          7           0       -1.121501    0.301966    0.000000
      4          7           0       -0.725228   -0.927038    0.000000
      5          7           0        0.641644   -1.007368    0.000000
      6          1           0        2.096804    0.562846    0.000000
      7          1           0       -0.064075    2.064718    0.000000
 ---------------------------------------------------------------------

 E2 =    -0.8046668426D+00 EUMP2 =    -0.25755369741788D+03
 E2 =    -0.8046884207D+00 EUMP2 =    -0.25755367239357D+03
 E2 =    -0.8045439321D+00 EUMP2 =    -0.25755364371458D+03
 E2 =    -0.8048113957D+00 EUMP2 =    -0.25755372547692D+03
 E2 =    -0.8046776637D+00 EUMP2 =    -0.25755368547173D+03
 E2 =    -0.8047086662D+00 EUMP2 =    -0.25755367909980D+03
 E2 =    -0.8046465653D+00 EUMP2 =    -0.25755369082058D+03
 E2 =    -0.8045969631D+00 EUMP2 =    -0.25755366709285D+03
 E2 =    -0.8047583191D+00 EUMP2 =    -0.25755370198388D+03
 E2 =    -0.8046776425D+00 EUMP2 =    -0.25755368549192D+03
 SCF Done:  E(RHF) =  -256.748989413     A.U. after    7 cycles
 E2 =    -0.8046940112D+00 EUMP2 =    -0.25755368342416D+03
 SCF Done:  E(RHF) =  -256.749025483     A.U. after    8 cycles
 E2 =    -0.8046611720D+00 EUMP2 =    -0.25755368665471D+03
 SCF Done:  E(RHF) =  -256.749002235     A.U. after    8 cycles
 E2 =    -0.8046832721D+00 EUMP2 =    -0.25755368550720D+03
 SCF Done:  E(RHF) =  -256.749013639     A.U. after    9 cycles
 E2 =    -0.8046719070D+00 EUMP2 =    -0.25755368554631D+03
 SCF Done:  E(RHF) =  -256.749008045     A.U. after    7 cycles
 E2 =    -0.8046775946D+00 EUMP2 =    -0.25755368564000D+03
 SCF Done:  E(RHF) =  -256.749010969     A.U. after    7 cycles
 E2 =    -0.8046737295D+00 EUMP2 =    -0.25755368469890D+03
 SCF Done:  E(RHF) =  -256.749004961     A.U. after    8 cycles
 E2 =    -0.8046814864D+00 EUMP2 =    -0.25755368644748D+03
 SCF Done:  E(RHF) =  -256.748975577     A.U. after    7 cycles
 E2 =    -0.8047127794D+00 EUMP2 =    -0.25755368835635D+03
 SCF Done:  E(RHF) =  -256.749038893     A.U. after    8 cycles
 E2 =    -0.8046423996D+00 EUMP2 =    -0.25755368129262D+03
 SCF Done:  E(RHF) =  -256.749008066     A.U. after    6 cycles
 E2 =    -0.8046775889D+00 EUMP2 =    -0.25755368565523D+03

 Alpha  occ. eigenvalues --  -15.68925 -15.66973 -15.65183 -15.60869 -11.34268
 Alpha  occ. eigenvalues --   -1.49235  -1.25365  -1.19556  -0.90536  -0.88796
 Alpha  occ. eigenvalues --   -0.79865  -0.67466  -0.67344  -0.56744  -0.47657
 Alpha  occ. eigenvalues --   -0.47131  -0.45257  -0.41785
 Alpha virt. eigenvalues --    0.13934   0.18819   0.19644   0.25073   0.36766
 Alpha virt. eigenvalues --    0.37895   0.47552   0.49941   0.64562   0.73682
 Alpha virt. eigenvalues --    0.73903   0.82449   0.82640   0.89533   0.91740

 Mulliken charges:
               1
     1  C    0.234333
     2  N   -0.466682
     3  N   -0.027927
     4  N   -0.077320
     5  N   -0.300327
     6  H    0.233051
     7  H    0.404872
 Sum of Mulliken charges =   0.00000

 Dipole moment (field-independent basis, Debye):
    X=              2.5382    Y=              4.8684    Z=              0.0018  Tot=              5.4903
 Quadrupole moment (field-independent basis, Debye-Ang):
   XX=            -28.9737   YY=            -26.4937   ZZ=            -28.5560
   XY=              1.9024   XZ=             -0.0001   YZ=              0.0040

                      1                      2                      3
                     A"                     A"                     A"
 Frequencies --    567.9289               695.7938               741.9143
 Red. masses --      1.7818                 2.0319                 7.8979
 Frc consts  --      0.3386                 0.5796                 2.5614
 IR Inten    --    104.2648                 9.6022                 9.9334

                      4                      5                      6
                     A"                     A'                     A'
 Frequencies --    870.7239               989.0088              1027.8294
 Red. masses --      1.3355                 5.2111                 6.9065
 Frc consts  --      0.5966                 3.0032                 4.2988
 IR Inten    --     19.7017                 2.2000                 0.7600

                      7                      8                      9
                     A'                     A'                     A'
 Frequencies --   1085.3818              1101.7749              1179.4075
 Red. masses --      5.8634                 3.0102                 1.7473
 Frc consts  --      4.0697                 2.1529                 1.4320
 IR Inten    --     18.5926                29.7181                14.1546

                     10                     11                     12
                     A'                     A'                     A'
 Frequencies --   1307.8090              1348.8219              1512.3599
 Red. masses --      2.4899                 9.8582                 3.0353
 Frc consts  --      2.5091                10.5672                 4.0904
 IR Inten    --      0.7104                18.3807                15.4887

                     13                     14                     15
                     A'                     A'                     A'
 Frequencies --   1557.5776              3331.9717              3688.8689
 Red. masses --      3.6910                 1.1021                 1.0843
 Frc consts  --      5.2759                 7.2091                 8.6933
 IR Inten    --     20.5399                 0.8861               107.4769

 - Thermochemistry -
 -------------------
 Temperature   298.150 Kelvin.  Pressure   1.00000 Atm.
 Atom     1 has atomic number  6 and mass  12.00000

 Molecular mass:    70.02795 amu.
 Principal axes and moments of inertia in atomic units:
                           1         2         3
     Eigenvalues --   171.72305 174.95831 346.68136
           X            0.87758   0.47943   0.00000
           Y           -0.47943   0.87758   0.00000
           Z            0.00000   0.00000   1.00000
 This molecule is an asymmetric top.
 Rotational symmetry number  1.
 Rotational temperatures (Kelvin)      0.50438     0.49505     0.24984
 Rotational constants (GHZ):          10.50960    10.31526     5.20576
 Zero-point vibrational energy     125650.8 (Joules/Mol)
                                   30.03126 (Kcal/Mol)
 Warning -- explicit consideration of   1 degrees of freedom as
           vibrations may cause significant error
 Vibrational temperatures:    817.12  1001.09  1067.45  1252.78  1422.96
          (Kelvin)           1478.82  1561.62  1585.21  1696.90  1881.64
                             1940.65  2175.95  2241.00  4793.96  5307.45

 Zero-point correction=                           0.047858 (Hartree/Particle)
 Thermal correction to Energy=                    0.051310
 Thermal correction to Enthalpy=                  0.052254
 Thermal correction to Gibbs Free Energy=         0.021763
 Sum of electronic and zero-point Energies=           -257.511242
 Sum of electronic and thermal Energies=              -257.507789
 Sum of electronic and thermal Enthalpies=            -257.506845
 Sum of electronic and thermal Free Energies=         -257.537337

                     E (Thermal)             CV                S
                      KCal/Mol        Cal/Mol-Kelvin    Cal/Mol-Kelvin
 Total                   32.197             11.122             64.174
 Electronic               0.000              0.000              0.000
 Translational            0.889              2.981             38.656
 Rotational               0.889              2.981             23.858
 Vibrational             30.420              5.160              1.660
 Vibration     1          0.924              1.101              0.508

 Optimization completed.
    -- Stationary point found.
 Normal termination of Gaussian 09 at Thu Dec  5 21:44:55 2013.
