 Gaussian 09, Revision D.01,
 Gaussian 09:  EM64L-G09RevD.01 24-Apr-2013

 ---------------------------------
 #CCSD=FULL/TZVP opt=z-matrix freq
 ---------------------------------

 -------------------------------------------------------------------
 1H-tetrazole CH2N4 casno=288948 state=1 config=1 method=65 basis=32
 -------------------------------------------------------------------
 Symbolic Z-matrix:
 Charge =  0 Multiplicity = 1

 SCF Done:  E(RHF) =  -256.833827633     A.U. after   14 cycles
 E2 =    -0.9082276717D+00 EUMP2 =    -0.25774205530435D+03
 SCF Done:  E(RHF) =  -256.830492085     A.U. after   12 cycles
 E2 =    -0.9159144461D+00 EUMP2 =    -0.25774640653124D+03
 SCF Done:  E(RHF) =  -256.829974758     A.U. after   11 cycles
 E2 =    -0.9166293626D+00 EUMP2 =    -0.25774660412050D+03
 SCF Done:  E(RHF) =  -256.830275350     A.U. after   12 cycles
 E2 =    -0.9160776937D+00 EUMP2 =    -0.25774635304404D+03
 SCF Done:  E(RHF) =  -256.829781710     A.U. after   11 cycles
 E2 =    -0.9168725577D+00 EUMP2 =    -0.25774665426811D+03
 SCF Done:  E(RHF) =  -256.829932473     A.U. after   10 cycles
 E2 =    -0.9166921913D+00 EUMP2 =    -0.25774662466383D+03
 SCF Done:  E(RHF) =  -256.829870396     A.U. after   10 cycles
 E2 =    -0.9167727251D+00 EUMP2 =    -0.25774664312117D+03
 SCF Done:  E(RHF) =  -256.829896972     A.U. after   10 cycles
 E2 =    -0.9167505082D+00 EUMP2 =    -0.25774664747988D+03
 SCF Done:  E(RHF) =  -256.829851429     A.U. after    9 cycles
 E2 =    -0.9168031588D+00 EUMP2 =    -0.25774665458776D+03
 SCF Done:  E(RHF) =  -256.829817220     A.U. after   10 cycles
 E2 =    -0.9168399358D+00 EUMP2 =    -0.25774665715565D+03
 E2 =    -0.9168046173D+00 EUMP2 =    -0.25774665441967D+03
 E2 =    -0.9167867886D+00 EUMP2 =    -0.25774664850466D+03
 E2 =    -0.9168039262D+00 EUMP2 =    -0.25774665397967D+03
 E2 =    -0.9168028588D+00 EUMP2 =    -0.25774665348811D+03
 E2 =    -0.9168024612D+00 EUMP2 =    -0.25774665367406D+03
 E2 =    -0.9168047171D+00 EUMP2 =    -0.25774665542741D+03
 E2 =    -0.9168033429D+00 EUMP2 =    -0.25774665383704D+03
 Optimization completed.
    -- Stationary point found.
 Normal termination of Gaussian 09 at Fri Dec  6 00:38:32 2013.

 --------------------------------------------------------------------
 #N Geom=AllCheck Guess=TCheck SCRF=Check GenChk RCCSD-Full/TZVP Freq
 --------------------------------------------------------------------

 Structure from the checkpoint file:  "/tmp/rdj3/g09-31683/Gau-11245.chk"
 -------------------------------------------------------------------
 1H-tetrazole CH2N4 casno=288948 state=1 config=1 method=65 basis=32
 -------------------------------------------------------------------
 Charge =  0 Multiplicity = 1

                         Standard orientation:
 ---------------------------------------------------------------------
 Center     Atomic      Atomic             Coordinates (Angstroms)
 Number     Number       Type             X           Y           Z
 ---------------------------------------------------------------------
      1          6           0        1.063349    0.233295    0.000000
      2          7           0        0.000000    1.053572    0.000000
      3          7           0       -1.117054    0.298814    0.000000
      4          7           0       -0.724754   -0.921994    0.000000
      5          7           0        0.641001   -1.003963    0.000000
      6          1           0        2.087241    0.558227    0.000000
      7          1           0       -0.061682    2.056997    0.000000
 ---------------------------------------------------------------------

 E2 =    -0.9168033416D+00 EUMP2 =    -0.25774665383579D+03
 E2 =    -0.9168493008D+00 EUMP2 =    -0.25774666297007D+03
 E2 =    -0.9167576138D+00 EUMP2 =    -0.25774664139212D+03
 E2 =    -0.9167969239D+00 EUMP2 =    -0.25774666573060D+03
 E2 =    -0.9168098795D+00 EUMP2 =    -0.25774664043091D+03
 E2 =    -0.9166795234D+00 EUMP2 =    -0.25774661271197D+03
 E2 =    -0.9169273534D+00 EUMP2 =    -0.25774669279491D+03
 E2 =    -0.9168034260D+00 EUMP2 =    -0.25774665362824D+03
 E2 =    -0.9168315467D+00 EUMP2 =    -0.25774664734388D+03
 E2 =    -0.9167752319D+00 EUMP2 =    -0.25774665893913D+03
 E2 =    -0.9167259378D+00 EUMP2 =    -0.25774663428641D+03
 E2 =    -0.9168808701D+00 EUMP2 =    -0.25774667109600D+03
 E2 =    -0.9168034040D+00 EUMP2 =    -0.25774665364775D+03
 SCF Done:  E(RHF) =  -256.829840574     A.U. after    7 cycles
 E2 =    -0.9168124387D+00 EUMP2 =    -0.25774665301260D+03
 SCF Done:  E(RHF) =  -256.829859093     A.U. after    7 cycles
 E2 =    -0.9167942621D+00 EUMP2 =    -0.25774665335528D+03
 SCF Done:  E(RHF) =  -256.829846848     A.U. after    7 cycles
 E2 =    -0.9168071245D+00 EUMP2 =    -0.25774665397292D+03
 SCF Done:  E(RHF) =  -256.829853806     A.U. after    8 cycles
 E2 =    -0.9167995592D+00 EUMP2 =    -0.25774665336558D+03
 SCF Done:  E(RHF) =  -256.829850438     A.U. after    6 cycles
 E2 =    -0.9168033470D+00 EUMP2 =    -0.25774665378462D+03
 SCF Done:  E(RHF) =  -256.829852523     A.U. after    6 cycles
 E2 =    -0.9168002495D+00 EUMP2 =    -0.25774665277234D+03
 SCF Done:  E(RHF) =  -256.829848190     A.U. after    7 cycles
 E2 =    -0.9168064670D+00 EUMP2 =    -0.25774665465677D+03
 SCF Done:  E(RHF) =  -256.829825588     A.U. after    7 cycles
 E2 =    -0.9168327598D+00 EUMP2 =    -0.25774665834812D+03
 SCF Done:  E(RHF) =  -256.829873627     A.U. after    8 cycles
 E2 =    -0.9167739289D+00 EUMP2 =    -0.25774664755543D+03
 SCF Done:  E(RHF) =  -256.829850457     A.U. after    6 cycles
 E2 =    -0.9168033453D+00 EUMP2 =    -0.25774665380270D+03

 Alpha  occ. eigenvalues --  -15.68470 -15.66723 -15.64926 -15.60636 -11.34050
 Alpha  occ. eigenvalues --   -1.50258  -1.26001  -1.20413  -0.91120  -0.89458
 Alpha  occ. eigenvalues --   -0.80577  -0.68131  -0.67986  -0.57313  -0.48105
 Alpha  occ. eigenvalues --   -0.47596  -0.45817  -0.42519
 Alpha virt. eigenvalues --    0.11201   0.12455   0.16760   0.16967   0.22175
 Alpha virt. eigenvalues --    0.23690   0.32815   0.32964   0.38520   0.40276
 Alpha virt. eigenvalues --    0.43955   0.47355   0.48802   0.49641   0.51355

 Mulliken charges:
               1
     1  C   -0.102333
     2  N   -0.090946
     3  N   -0.059384
     4  N   -0.070428
     5  N   -0.064887
     6  H    0.132121
     7  H    0.255856
 Sum of Mulliken charges =   0.00000

 Dipole moment (field-independent basis, Debye):
    X=              2.5216    Y=              4.8870    Z=              0.0017  Tot=              5.4992
 Quadrupole moment (field-independent basis, Debye-Ang):
   XX=            -29.6230   YY=            -27.1582   ZZ=            -28.7682
   XY=              1.9457   XZ=             -0.0001   YZ=              0.0039

                      1                      2                      3
                     A"                     A"                     A"
 Frequencies --    466.5816               681.8010               720.8121
 Red. masses --      1.9164                 2.0909                 7.2919
 Frc consts  --      0.2458                 0.5726                 2.2322
 IR Inten    --     77.0143                11.4834                 9.2481

                      4                      5                      6
                     A"                     A'                     A'
 Frequencies --    842.2939               974.8791              1020.1993
 Red. masses --      1.2628                 6.0893                 7.7030
 Frc consts  --      0.5279                 3.4097                 4.7237
 IR Inten    --     27.3167                 2.9275                 0.3780

                      7                      8                      9
                     A'                     A'                     A'
 Frequencies --   1063.6814              1089.4330              1171.0120
 Red. masses --      4.9849                 3.2365                 1.8350
 Frc consts  --      3.3230                 2.2632                 1.4826
 IR Inten    --     22.4596                24.6470                16.1742

                     10                     11                     12
                     A'                     A'                     A'
 Frequencies --   1302.8554              1337.5603              1499.0311
 Red. masses --      2.4248                 8.9121                 2.9472
 Frc consts  --      2.4251                 9.3942                 3.9019
 IR Inten    --      0.6138                19.4382                14.3367

                     13                     14                     15
                     A'                     A'                     A'
 Frequencies --   1551.5732              3335.5236              3714.6637
 Red. masses --      3.3058                 1.1019                 1.0840
 Frc consts  --      4.6889                 7.2230                 8.8131
 IR Inten    --     20.9722                 1.3864               113.7300

 - Thermochemistry -
 -------------------
 Temperature   298.150 Kelvin.  Pressure   1.00000 Atm.
 Atom     1 has atomic number  6 and mass  12.00000

 Molecular mass:    70.02795 amu.
 Principal axes and moments of inertia in atomic units:
                           1         2         3
     Eigenvalues --   170.52222 173.85136 344.37358
           X            0.88866   0.45856   0.00000
           Y           -0.45856   0.88866   0.00000
           Z            0.00000   0.00000   1.00000
 This molecule is an asymmetric top.
 Rotational symmetry number  1.
 Rotational temperatures (Kelvin)      0.50793     0.49821     0.25151
 Rotational constants (GHZ):          10.58361    10.38094     5.24065
 Zero-point vibrational energy     124243.6 (Joules/Mol)
                                   29.69492 (Kcal/Mol)
 Warning -- explicit consideration of   1 degrees of freedom as
           vibrations may cause significant error
 Vibrational temperatures:    671.31   980.96  1037.09  1211.87  1402.63
          (Kelvin)           1467.84  1530.40  1567.45  1684.82  1874.52
                             1924.45  2156.77  2232.36  4799.07  5344.57

 Zero-point correction=                           0.047322 (Hartree/Particle)
 Thermal correction to Energy=                    0.050874
 Thermal correction to Enthalpy=                  0.051818
 Thermal correction to Gibbs Free Energy=         0.021185
 Sum of electronic and zero-point Energies=           -257.704567
 Sum of electronic and thermal Energies=              -257.701015
 Sum of electronic and thermal Enthalpies=            -257.700071
 Sum of electronic and thermal Free Energies=         -257.730704

                     E (Thermal)             CV                S
                      KCal/Mol        Cal/Mol-Kelvin    Cal/Mol-Kelvin
 Total                   31.924             11.526             64.473
 Electronic               0.000              0.000              0.000
 Translational            0.889              2.981             38.656
 Rotational               0.889              2.981             23.838
 Vibrational             30.146              5.565              1.979
 Vibration     1          0.824              1.324              0.747

 Optimization completed.
    -- Stationary point found.
 Normal termination of Gaussian 09 at Fri Dec  6 08:40:10 2013.
