 Gaussian 09, Revision D.01,
 Gaussian 09:  EM64L-G09RevD.01 24-Apr-2013

 -------------------------------
 #CCSD=FULL/aug-cc-pVDZ opt freq
 -------------------------------

 -------------------------------------------------------------------
 1H-tetrazole CH2N4 casno=288948 state=1 config=1 method=65 basis=17
 -------------------------------------------------------------------
 Symbolic Z-matrix:
 Charge =  0 Multiplicity = 1

 SCF Done:  E(RHF) =  -256.797933873     A.U. after   15 cycles
 E2 =    -0.8215273517D+00 EUMP2 =    -0.25761946122425D+03
 SCF Done:  E(RHF) =  -256.793049094     A.U. after   13 cycles
 E2 =    -0.8346596930D+00 EUMP2 =    -0.25762770878674D+03
 SCF Done:  E(RHF) =  -256.792198083     A.U. after   11 cycles
 E2 =    -0.8358469187D+00 EUMP2 =    -0.25762804500130D+03
 SCF Done:  E(RHF) =  -256.792016543     A.U. after   11 cycles
 E2 =    -0.8361349289D+00 EUMP2 =    -0.25762815147184D+03
 SCF Done:  E(RHF) =  -256.792179108     A.U. after   10 cycles
 E2 =    -0.8359403111D+00 EUMP2 =    -0.25762811941905D+03
 Optimization completed.
    -- Stationary point found.
 Normal termination of Gaussian 09 at Tue Dec 17 16:36:23 2013.

 ----------------------------------------------------------------------
 #N Geom=AllCheck Guess=TCheck SCRF=Check GenChk RCCSD-Full/Aug-CC-pVDZ
  Freq
 ----------------------------------------------------------------------

 Structure from the checkpoint file:  "/tmp/rdj3/g09-13683/Gau-18467.chk"
 -------------------------------------------------------------------
 1H-tetrazole CH2N4 casno=288948 state=1 config=1 method=65 basis=17
 -------------------------------------------------------------------
 Charge =  0 Multiplicity = 1

                         Standard orientation:
 ---------------------------------------------------------------------
 Center     Atomic      Atomic             Coordinates (Angstroms)
 Number     Number       Type             X           Y           Z
 ---------------------------------------------------------------------
      1          6           0        1.071389    0.235079    0.000000
      2          7           0        0.000000    1.059435    0.000000
      3          7           0       -1.123512    0.304837    0.000000
      4          7           0       -0.729271   -0.927992    0.000000
      5          7           0        0.642153   -1.013879    0.000000
      6          1           0        2.105574    0.564394    0.000000
      7          1           0       -0.059492    2.068329    0.000000
 ---------------------------------------------------------------------

 SCF Done:  E(RHF) =  -256.792179108     A.U. after    1 cycles
 E2 =    -0.8359403094D+00 EUMP2 =    -0.25762811941728D+03
 SCF Done:  E(RHF) =  -256.792132900     A.U. after    9 cycles
 E2 =    -0.8359996294D+00 EUMP2 =    -0.25762813252915D+03
 SCF Done:  E(RHF) =  -256.792221851     A.U. after   10 cycles
 E2 =    -0.8358811973D+00 EUMP2 =    -0.25762810304873D+03
 SCF Done:  E(RHF) =  -256.792148416     A.U. after   10 cycles
 E2 =    -0.8359877080D+00 EUMP2 =    -0.25762813612371D+03
 SCF Done:  E(RHF) =  -256.792207345     A.U. after   11 cycles
 E2 =    -0.8358929106D+00 EUMP2 =    -0.25762810025519D+03
 E2 =    -0.8359404257D+00 EUMP2 =    -0.25762811918783D+03
 E2 =    -0.8359479153D+00 EUMP2 =    -0.25762811584239D+03
 E2 =    -0.8359328061D+00 EUMP2 =    -0.25762812087654D+03
 E2 =    -0.8359678584D+00 EUMP2 =    -0.25762811246039D+03
 E2 =    -0.8359129587D+00 EUMP2 =    -0.25762812271160D+03
 E2 =    -0.8359403576D+00 EUMP2 =    -0.25762811925267D+03
 E2 =    -0.8358446187D+00 EUMP2 =    -0.25762810259381D+03
 E2 =    -0.8360362134D+00 EUMP2 =    -0.25762813435675D+03
 E2 =    -0.8360557550D+00 EUMP2 =    -0.25762816341795D+03
 E2 =    -0.8358249365D+00 EUMP2 =    -0.25762807357852D+03
 E2 =    -0.8359267873D+00 EUMP2 =    -0.25762813170336D+03
 E2 =    -0.8359539409D+00 EUMP2 =    -0.25762810562896D+03
 E2 =    -0.8358006035D+00 EUMP2 =    -0.25762807397612D+03
 E2 =    -0.8360802170D+00 EUMP2 =    -0.25762816275841D+03
 E2 =    -0.8359404001D+00 EUMP2 =    -0.25762811921204D+03
 E2 =    -0.8359710132D+00 EUMP2 =    -0.25762811122732D+03
 E2 =    -0.8359097016D+00 EUMP2 =    -0.25762812623901D+03
 E2 =    -0.8358506033D+00 EUMP2 =    -0.25762809937025D+03
 E2 =    -0.8360301391D+00 EUMP2 =    -0.25762813724837D+03
 E2 =    -0.8359403771D+00 EUMP2 =    -0.25762811922961D+03
 SCF Done:  E(RHF) =  -256.792162167     A.U. after    6 cycles
 E2 =    -0.8359556866D+00 EUMP2 =    -0.25762811785407D+03
 SCF Done:  E(RHF) =  -256.792194760     A.U. after    7 cycles
 E2 =    -0.8359249403D+00 EUMP2 =    -0.25762811969978D+03
 SCF Done:  E(RHF) =  -256.792173225     A.U. after    7 cycles
 E2 =    -0.8359461922D+00 EUMP2 =    -0.25762811941751D+03
 SCF Done:  E(RHF) =  -256.792184663     A.U. after    8 cycles
 E2 =    -0.8359344515D+00 EUMP2 =    -0.25762811911474D+03
 SCF Done:  E(RHF) =  -256.792179049     A.U. after    7 cycles
 E2 =    -0.8359403251D+00 EUMP2 =    -0.25762811937413D+03
 SCF Done:  E(RHF) =  -256.792181448     A.U. after    7 cycles
 E2 =    -0.8359369107D+00 EUMP2 =    -0.25762811835863D+03
 SCF Done:  E(RHF) =  -256.792176498     A.U. after    8 cycles
 E2 =    -0.8359437638D+00 EUMP2 =    -0.25762812026151D+03
 SCF Done:  E(RHF) =  -256.792150238     A.U. after    7 cycles
 E2 =    -0.8359737320D+00 EUMP2 =    -0.25762812396954D+03
 SCF Done:  E(RHF) =  -256.792206230     A.U. after    8 cycles
 E2 =    -0.8359069038D+00 EUMP2 =    -0.25762811313399D+03
 SCF Done:  E(RHF) =  -256.792179071     A.U. after    6 cycles
 E2 =    -0.8359403189D+00 EUMP2 =    -0.25762811939013D+03

 Alpha  occ. eigenvalues --  -15.69119 -15.67584 -15.66039 -15.61759 -11.35083
 Alpha  occ. eigenvalues --   -1.49268  -1.25632  -1.19763  -0.90846  -0.89042
 Alpha  occ. eigenvalues --   -0.79871  -0.67636  -0.67395  -0.57103  -0.48146
 Alpha  occ. eigenvalues --   -0.47824  -0.45489  -0.41991
 Alpha virt. eigenvalues --    0.01927   0.04145   0.08115   0.08640   0.10907
 Alpha virt. eigenvalues --    0.12465   0.12698   0.14278   0.15613   0.16164
 Alpha virt. eigenvalues --    0.16684   0.17926   0.19795   0.19904   0.21494

 Mulliken charges:
               1
     1  C    0.952767
     2  N   -0.061933
     3  N   -0.157195
     4  N   -0.258262
     5  N   -0.340625
     6  H   -0.117686
     7  H   -0.017067
 Sum of Mulliken charges =   0.00000

 Dipole moment (field-independent basis, Debye):
    X=              2.5165    Y=              4.7769    Z=              0.0016  Tot=              5.3992
 Quadrupole moment (field-independent basis, Debye-Ang):
   XX=            -29.6186   YY=            -27.2384   ZZ=            -29.4645
   XY=              1.9719   XZ=             -0.0001   YZ=              0.0038

                      1                      2                      3
                     A"                     A"                     A"
 Frequencies --    555.8594               686.6216               731.0679
 Red. masses --      1.6958                 2.0687                 8.5385
 Frc consts  --      0.3087                 0.5746                 2.6887
 IR Inten    --     84.0455                 6.8452                 7.5129

                      4                      5                      6
                     A"                     A'                     A'
 Frequencies --    866.0624               968.3679              1012.2360
 Red. masses --      1.3538                 4.8761                 7.0617
 Frc consts  --      0.5983                 2.6940                 4.2631
 IR Inten    --     18.1942                 2.3941                 0.4256

                      7                      8                      9
                     A'                     A'                     A'
 Frequencies --   1061.0875              1082.5709              1151.1804
 Red. masses --      4.7982                 2.9785                 1.8838
 Frc consts  --      3.1829                 2.0567                 1.4708
 IR Inten    --     21.5359                25.1028                12.1655

                     10                     11                     12
                     A'                     A'                     A'
 Frequencies --   1281.8270              1328.3606              1491.1531
 Red. masses --      2.5755                 9.9713                 3.1808
 Frc consts  --      2.4932                10.3665                 4.1670
 IR Inten    --      0.2376                15.0309                13.3748

                     13                     14                     15
                     A'                     A'                     A'
 Frequencies --   1531.3377              3320.7086              3697.0791
 Red. masses --      3.4356                 1.1025                 1.0844
 Frc consts  --      4.7467                 7.1627                 8.7332
 IR Inten    --     19.4325                 1.5165               105.0892

 - Thermochemistry -
 -------------------
 Temperature   298.150 Kelvin.  Pressure   1.00000 Atm.
 Atom     1 has atomic number  6 and mass  12.00000

 Molecular mass:    70.02795 amu.
 Principal axes and moments of inertia in atomic units:
                           1         2         3
     Eigenvalues --   172.88382 176.20377 349.08760
           X            0.85031   0.52628   0.00000
           Y           -0.52628   0.85031   0.00000
           Z            0.00000   0.00000   1.00000
 This molecule is an asymmetric top.
 Rotational symmetry number  1.
 Rotational temperatures (Kelvin)      0.50099     0.49155     0.24811
 Rotational constants (GHZ):          10.43904    10.24235     5.16988
 Zero-point vibrational energy     124205.4 (Joules/Mol)
                                   29.68580 (Kcal/Mol)
 Warning -- explicit consideration of   1 degrees of freedom as
           vibrations may cause significant error
 Vibrational temperatures:    799.76   987.89  1051.84  1246.07  1393.26
          (Kelvin)           1456.38  1526.67  1557.58  1656.29  1844.26
                             1911.21  2145.43  2203.25  4777.75  5319.27

 Zero-point correction=                           0.047307 (Hartree/Particle)
 Thermal correction to Energy=                    0.050790
 Thermal correction to Enthalpy=                  0.051735
 Thermal correction to Gibbs Free Energy=         0.021192
 Sum of electronic and zero-point Energies=           -257.584338
 Sum of electronic and thermal Energies=              -257.580855
 Sum of electronic and thermal Enthalpies=            -257.579911
 Sum of electronic and thermal Free Energies=         -257.610454

                     E (Thermal)             CV                S
                      KCal/Mol        Cal/Mol-Kelvin    Cal/Mol-Kelvin
 Total                   31.871             11.325             64.283
 Electronic               0.000              0.000              0.000
 Translational            0.889              2.981             38.656
 Rotational               0.889              2.981             23.879
 Vibrational             30.094              5.364              1.748
 Vibration     1          0.911              1.127              0.532

 Optimization completed.
    -- Stationary point found.
 Normal termination of Gaussian 09 at Wed Dec 18 11:37:37 2013.
