 Gaussian 09, Revision D.01,
 Gaussian 09:  EM64L-G09RevD.01 24-Apr-2013

 ---------------------------
 #CCSD=FULL/cc-pVDZ opt freq
 ---------------------------

 ------------------------------------------------------------------
 1H-tetrazole CH2N4 casno=288948 state=1 config=1 method=65 basis=5
 ------------------------------------------------------------------
 Symbolic Z-matrix:
 Charge =  0 Multiplicity = 1

 SCF Done:  E(RHF) =  -256.780056734     A.U. after   15 cycles
 E2 =    -0.7868768137D+00 EUMP2 =    -0.25756693354721D+03
 SCF Done:  E(RHF) =  -256.775310685     A.U. after   13 cycles
 E2 =    -0.7987139950D+00 EUMP2 =    -0.25757402467972D+03
 SCF Done:  E(RHF) =  -256.774754888     A.U. after   11 cycles
 E2 =    -0.7995064075D+00 EUMP2 =    -0.25757426129593D+03
 SCF Done:  E(RHF) =  -256.774675651     A.U. after   10 cycles
 E2 =    -0.7996534728D+00 EUMP2 =    -0.25757432912357D+03
 SCF Done:  E(RHF) =  -256.774734891     A.U. after    9 cycles
 E2 =    -0.7995892586D+00 EUMP2 =    -0.25757432414933D+03
 Optimization completed.
    -- Stationary point found.
 Normal termination of Gaussian 09 at Wed Dec 18 11:53:39 2013.

 ----------------------------------------------------------------------
 #N Geom=AllCheck Guess=TCheck SCRF=Check GenChk RCCSD-Full/CC-pVDZ Fre
 q
 ----------------------------------------------------------------------

 Structure from the checkpoint file:  "/tmp/rdj3/g09-13683/Gau-27462.chk"
 ------------------------------------------------------------------
 1H-tetrazole CH2N4 casno=288948 state=1 config=1 method=65 basis=5
 ------------------------------------------------------------------
 Charge =  0 Multiplicity = 1

                         Standard orientation:
 ---------------------------------------------------------------------
 Center     Atomic      Atomic             Coordinates (Angstroms)
 Number     Number       Type             X           Y           Z
 ---------------------------------------------------------------------
      1          6           0        1.069106    0.231399    0.000000
      2          7           0        0.000000    1.058206    0.000000
      3          7           0       -1.120074    0.305518    0.000000
      4          7           0       -0.727942   -0.923675    0.000000
      5          7           0        0.639011   -1.014219    0.000000
      6          1           0        2.105242    0.561292    0.000000
      7          1           0       -0.056840    2.069497    0.000000
 ---------------------------------------------------------------------

 SCF Done:  E(RHF) =  -256.774734891     A.U. after    1 cycles
 E2 =    -0.7995892552D+00 EUMP2 =    -0.25757432414585D+03
 SCF Done:  E(RHF) =  -256.774692297     A.U. after    9 cycles
 E2 =    -0.7996428230D+00 EUMP2 =    -0.25757433512020D+03
 SCF Done:  E(RHF) =  -256.774773992     A.U. after    9 cycles
 E2 =    -0.7995358752D+00 EUMP2 =    -0.25757430986691D+03
 SCF Done:  E(RHF) =  -256.774704496     A.U. after   10 cycles
 E2 =    -0.7996348873D+00 EUMP2 =    -0.25757433938324D+03
 SCF Done:  E(RHF) =  -256.774762768     A.U. after   11 cycles
 E2 =    -0.7995436060D+00 EUMP2 =    -0.25757430637367D+03
 E2 =    -0.7995893632D+00 EUMP2 =    -0.25757432390458D+03
 E2 =    -0.7995952502D+00 EUMP2 =    -0.25757432095989D+03
 E2 =    -0.7995833266D+00 EUMP2 =    -0.25757432515274D+03
 E2 =    -0.7996166806D+00 EUMP2 =    -0.25757431821386D+03
 E2 =    -0.7995620082D+00 EUMP2 =    -0.25757432635621D+03
 E2 =    -0.7995893015D+00 EUMP2 =    -0.25757432397836D+03
 E2 =    -0.7994987786D+00 EUMP2 =    -0.25757430893545D+03
 E2 =    -0.7996799057D+00 EUMP2 =    -0.25757433740006D+03
 E2 =    -0.7997017909D+00 EUMP2 =    -0.25757436503261D+03
 E2 =    -0.7994767714D+00 EUMP2 =    -0.25757428134195D+03
 E2 =    -0.7995787290D+00 EUMP2 =    -0.25757433612482D+03
 E2 =    -0.7995998717D+00 EUMP2 =    -0.25757431060006D+03
 E2 =    -0.7994559906D+00 EUMP2 =    -0.25757428177754D+03
 E2 =    -0.7997226779D+00 EUMP2 =    -0.25757436431945D+03
 E2 =    -0.7995893368D+00 EUMP2 =    -0.25757432392803D+03
 E2 =    -0.7996186731D+00 EUMP2 =    -0.25757431623784D+03
 E2 =    -0.7995599048D+00 EUMP2 =    -0.25757433062804D+03
 E2 =    -0.7994995522D+00 EUMP2 =    -0.25757430547508D+03
 E2 =    -0.7996790554D+00 EUMP2 =    -0.25757434052270D+03
 E2 =    -0.7995893172D+00 EUMP2 =    -0.25757432394933D+03
 SCF Done:  E(RHF) =  -256.774717815     A.U. after    7 cycles
 E2 =    -0.7996045659D+00 EUMP2 =    -0.25757432238110D+03
 SCF Done:  E(RHF) =  -256.774750670     A.U. after    7 cycles
 E2 =    -0.7995739559D+00 EUMP2 =    -0.25757432462613D+03
 SCF Done:  E(RHF) =  -256.774728855     A.U. after    7 cycles
 E2 =    -0.7995952783D+00 EUMP2 =    -0.25757432413362D+03
 SCF Done:  E(RHF) =  -256.774740598     A.U. after    8 cycles
 E2 =    -0.7995832484D+00 EUMP2 =    -0.25757432384675D+03
 SCF Done:  E(RHF) =  -256.774734831     A.U. after    6 cycles
 E2 =    -0.7995892668D+00 EUMP2 =    -0.25757432409805D+03
 SCF Done:  E(RHF) =  -256.774737005     A.U. after    6 cycles
 E2 =    -0.7995862843D+00 EUMP2 =    -0.25757432328884D+03
 SCF Done:  E(RHF) =  -256.774732510     A.U. after    7 cycles
 E2 =    -0.7995922769D+00 EUMP2 =    -0.25757432478738D+03
 SCF Done:  E(RHF) =  -256.774706796     A.U. after    7 cycles
 E2 =    -0.7996208287D+00 EUMP2 =    -0.25757432762429D+03
 SCF Done:  E(RHF) =  -256.774761239     A.U. after    8 cycles
 E2 =    -0.7995576854D+00 EUMP2 =    -0.25757431892394D+03
 SCF Done:  E(RHF) =  -256.774734854     A.U. after    6 cycles
 E2 =    -0.7995892608D+00 EUMP2 =    -0.25757432411466D+03

 Alpha  occ. eigenvalues --  -15.68355 -15.66287 -15.64497 -15.60507 -11.34437
 Alpha  occ. eigenvalues --   -1.49037  -1.25217  -1.19305  -0.90244  -0.88521
 Alpha  occ. eigenvalues --   -0.79378  -0.67127  -0.67096  -0.56481  -0.47495
 Alpha  occ. eigenvalues --   -0.46939  -0.45090  -0.41551
 Alpha virt. eigenvalues --    0.13886   0.15604   0.18738   0.19617   0.34651
 Alpha virt. eigenvalues --    0.37665   0.42824   0.48511   0.59795   0.66402
 Alpha virt. eigenvalues --    0.66651   0.75660   0.79595   0.82858   0.87094

 Mulliken charges:
               1
     1  C    0.214219
     2  N   -0.098488
     3  N   -0.054159
     4  N   -0.081199
     5  N   -0.202132
     6  H    0.077815
     7  H    0.143944
 Sum of Mulliken charges =   0.00000

 Dipole moment (field-independent basis, Debye):
    X=              2.4014    Y=              4.7015    Z=              0.0016  Tot=              5.2793
 Quadrupole moment (field-independent basis, Debye-Ang):
   XX=            -29.0823   YY=            -26.5780   ZZ=            -28.3913
   XY=              1.8094   XZ=             -0.0001   YZ=              0.0037

                      1                      2                      3
                     A"                     A"                     A"
 Frequencies --    556.3635               693.8764               743.6559
 Red. masses --      1.7132                 2.1250                 7.6585
 Frc consts  --      0.3124                 0.6028                 2.4954
 IR Inten    --     84.5243                 6.2609                 9.0859

                      4                      5                      6
                     A"                     A'                     A'
 Frequencies --    880.7998               980.6924              1021.2068
 Red. masses --      1.3455                 4.5903                 6.5436
 Frc consts  --      0.6150                 2.6011                 4.0207
 IR Inten    --     17.2708                 1.9651                 1.0752

                      7                      8                      9
                     A'                     A'                     A'
 Frequencies --   1077.2932              1092.4417              1159.7395
 Red. masses --      4.7486                 2.6658                 1.9709
 Frc consts  --      3.2470                 1.8745                 1.5618
 IR Inten    --     20.3374                26.9820                13.5388

                     10                     11                     12
                     A'                     A'                     A'
 Frequencies --   1292.8509              1350.5390              1503.1880
 Red. masses --      2.6588                 9.4051                 3.0302
 Frc consts  --      2.6184                10.1071                 4.0341
 IR Inten    --      0.2695                16.8807                13.9475

                     13                     14                     15
                     A'                     A'                     A'
 Frequencies --   1548.6877              3331.7773              3702.2205
 Red. masses --      4.1810                 1.1021                 1.0848
 Frc consts  --      5.9083                 7.2084                 8.7604
 IR Inten    --     15.6478                 1.1704               111.7891

 - Thermochemistry -
 -------------------
 Temperature   298.150 Kelvin.  Pressure   1.00000 Atm.
 Atom     1 has atomic number  6 and mass  12.00000

 Molecular mass:    70.02795 amu.
 Principal axes and moments of inertia in atomic units:
                           1         2         3
     Eigenvalues --   171.99563 175.64916 347.64479
           X            0.80857   0.58840   0.00000
           Y           -0.58840   0.80857   0.00000
           Z            0.00000   0.00000   1.00000
 This molecule is an asymmetric top.
 Rotational symmetry number  1.
 Rotational temperatures (Kelvin)      0.50358     0.49311     0.24914
 Rotational constants (GHZ):          10.49295    10.27469     5.19134
 Zero-point vibrational energy     125221.1 (Joules/Mol)
                                   29.92856 (Kcal/Mol)
 Warning -- explicit consideration of   1 degrees of freedom as
           vibrations may cause significant error
 Vibrational temperatures:    800.48   998.33  1069.95  1267.27  1411.00
          (Kelvin)           1469.29  1549.98  1571.78  1668.60  1860.12
                             1943.12  2162.75  2228.21  4793.68  5326.66

 Zero-point correction=                           0.047694 (Hartree/Particle)
 Thermal correction to Energy=                    0.051158
 Thermal correction to Enthalpy=                  0.052102
 Thermal correction to Gibbs Free Energy=         0.021591
 Sum of electronic and zero-point Energies=           -257.533535
 Sum of electronic and thermal Energies=              -257.530071
 Sum of electronic and thermal Enthalpies=            -257.529127
 Sum of electronic and thermal Free Energies=         -257.559638

                     E (Thermal)             CV                S
                      KCal/Mol        Cal/Mol-Kelvin    Cal/Mol-Kelvin
 Total                   32.102             11.190             64.216
 Electronic               0.000              0.000              0.000
 Translational            0.889              2.981             38.656
 Rotational               0.889              2.981             23.867
 Vibrational             30.324              5.228              1.694
 Vibration     1          0.912              1.126              0.531

 Optimization completed.
    -- Stationary point found.
 Normal termination of Gaussian 09 at Wed Dec 18 15:10:37 2013.
