 Gaussian 09, Revision D.01,
 Gaussian 09:  EM64L-G09RevD.01 24-Apr-2013

 ------------------------------------
 #CCSD=FULL/cc-pVTZ opt=z-matrix freq
 ------------------------------------

 ------------------------------------------------------------------
 1H-tetrazole CH2N4 casno=288948 state=1 config=1 method=65 basis=6
 ------------------------------------------------------------------
 Symbolic Z-matrix:
 Charge =  0 Multiplicity = 1

 SCF Done:  E(RHF) =  -256.848466948     A.U. after   14 cycles
 E2 =    -0.1023992532D+01 EUMP2 =    -0.25787245947918D+03
 SCF Done:  E(RHF) =  -256.846533846     A.U. after   11 cycles
 E2 =    -0.1028626736D+01 EUMP2 =    -0.25787516058152D+03
 SCF Done:  E(RHF) =  -256.846217194     A.U. after   10 cycles
 E2 =    -0.1029139820D+01 EUMP2 =    -0.25787535701402D+03
 SCF Done:  E(RHF) =  -256.846186231     A.U. after   10 cycles
 E2 =    -0.1029124441D+01 EUMP2 =    -0.25787531067126D+03
 SCF Done:  E(RHF) =  -256.846153988     A.U. after    9 cycles
 E2 =    -0.1029269587D+01 EUMP2 =    -0.25787542357579D+03
 SCF Done:  E(RHF) =  -256.846285050     A.U. after   10 cycles
 E2 =    -0.1029165789D+01 EUMP2 =    -0.25787545083927D+03
 SCF Done:  E(RHF) =  -256.846166043     A.U. after    8 cycles
 E2 =    -0.1029260632D+01 EUMP2 =    -0.25787542667477D+03
 SCF Done:  E(RHF) =  -256.846199409     A.U. after    9 cycles
 E2 =    -0.1029266004D+01 EUMP2 =    -0.25787546541305D+03
 SCF Done:  E(RHF) =  -256.846169665     A.U. after   10 cycles
 E2 =    -0.1029243428D+01 EUMP2 =    -0.25787541309339D+03
 SCF Done:  E(RHF) =  -256.837032208     A.U. after   14 cycles
 E2 =    -0.1034800846D+01 EUMP2 =    -0.25787183305391D+03
 E2 =    -0.1029264032D+01 EUMP2 =    -0.25787542849794D+03
 E2 =    -0.1029033207D+01 EUMP2 =    -0.25787531479378D+03
 E2 =    -0.1029220829D+01 EUMP2 =    -0.25787541549793D+03
 E2 =    -0.1029207344D+01 EUMP2 =    -0.25787541062877D+03
 Optimization completed.
    -- Stationary point found.
 Normal termination of Gaussian 09 at Sat Dec  7 04:20:16 2013.

 ----------------------------------------------------------------------
 #N Geom=AllCheck Guess=TCheck SCRF=Check GenChk RCCSD-Full/CC-pVTZ Fre
 q
 ----------------------------------------------------------------------

 Structure from the checkpoint file:  "/tmp/rdj3/g09-31683/Gau-21515.chk"
 ------------------------------------------------------------------
 1H-tetrazole CH2N4 casno=288948 state=1 config=1 method=65 basis=6
 ------------------------------------------------------------------
 Charge =  0 Multiplicity = 1

                         Standard orientation:
 ---------------------------------------------------------------------
 Center     Atomic      Atomic             Coordinates (Angstroms)
 Number     Number       Type             X           Y           Z
 ---------------------------------------------------------------------
      1          6           0        1.057859    0.231230    0.000000
      2          7           0        0.000000    1.047662    0.000000
      3          7           0       -1.108952    0.299533    0.000000
      4          7           0       -0.720552   -0.916340    0.000000
      5          7           0        0.634435   -1.000747    0.000000
      6          1           0        2.075898    0.555902    0.000000
      7          1           0       -0.057565    2.045959    0.000000
 ---------------------------------------------------------------------

 E2 =    -0.1029207346D+01 EUMP2 =    -0.25787541063080D+03
 E2 =    -0.1029250690D+01 EUMP2 =    -0.25787542331552D+03
 E2 =    -0.1029164309D+01 EUMP2 =    -0.25787539463103D+03
 E2 =    -0.1029246538D+01 EUMP2 =    -0.25787542687462D+03
 E2 =    -0.1029168250D+01 EUMP2 =    -0.25787539186192D+03
 E2 =    -0.1029207444D+01 EUMP2 =    -0.25787541038303D+03
 E2 =    -0.1029207505D+01 EUMP2 =    -0.25787542177641D+03
 E2 =    -0.1029207363D+01 EUMP2 =    -0.25787539793351D+03
 E2 =    -0.1029093819D+01 EUMP2 =    -0.25787536510214D+03
 E2 =    -0.1029321168D+01 EUMP2 =    -0.25787545399490D+03
 E2 =    -0.1029207435D+01 EUMP2 =    -0.25787541042652D+03
 E2 =    -0.1029227194D+01 EUMP2 =    -0.25787540435443D+03
 E2 =    -0.1029187681D+01 EUMP2 =    -0.25787541551013D+03
 E2 =    -0.1029140689D+01 EUMP2 =    -0.25787538789335D+03
 E2 =    -0.1029274220D+01 EUMP2 =    -0.25787543111088D+03
 E2 =    -0.1029207414D+01 EUMP2 =    -0.25787541044664D+03
 SCF Done:  E(RHF) =  -256.846200201     A.U. after    6 cycles
 E2 =    -0.1029210509D+01 EUMP2 =    -0.25787541070952D+03
 SCF Done:  E(RHF) =  -256.846205021     A.U. after    7 cycles
 E2 =    -0.1029204274D+01 EUMP2 =    -0.25787540929587D+03
 SCF Done:  E(RHF) =  -256.846201561     A.U. after    6 cycles
 E2 =    -0.1029209589D+01 EUMP2 =    -0.25787541115077D+03
 SCF Done:  E(RHF) =  -256.846204675     A.U. after    7 cycles
 E2 =    -0.1029205164D+01 EUMP2 =    -0.25787540983846D+03
 SCF Done:  E(RHF) =  -256.846203229     A.U. after    6 cycles
 E2 =    -0.1029207369D+01 EUMP2 =    -0.25787541059791D+03
 SCF Done:  E(RHF) =  -256.846204876     A.U. after    6 cycles
 E2 =    -0.1029204594D+01 EUMP2 =    -0.25787540946937D+03
 SCF Done:  E(RHF) =  -256.846201423     A.U. after    6 cycles
 E2 =    -0.1029210186D+01 EUMP2 =    -0.25787541160902D+03
 SCF Done:  E(RHF) =  -256.846184460     A.U. after    7 cycles
 E2 =    -0.1029232378D+01 EUMP2 =    -0.25787541683734D+03
 SCF Done:  E(RHF) =  -256.846220297     A.U. after    7 cycles
 E2 =    -0.1029182358D+01 EUMP2 =    -0.25787540265510D+03
 SCF Done:  E(RHF) =  -256.846203250     A.U. after    5 cycles
 E2 =    -0.1029207366D+01 EUMP2 =    -0.25787541061661D+03

 Alpha  occ. eigenvalues --  -15.67882 -15.65935 -15.64260 -15.59971 -11.33264
 Alpha  occ. eigenvalues --   -1.50148  -1.25821  -1.19872  -0.90855  -0.89171
 Alpha  occ. eigenvalues --   -0.80312  -0.68147  -0.67839  -0.56993  -0.47720
 Alpha  occ. eigenvalues --   -0.47064  -0.45617  -0.42060
 Alpha virt. eigenvalues --    0.11647   0.13619   0.15847   0.18136   0.27012
 Alpha virt. eigenvalues --    0.29449   0.35418   0.41272   0.42313   0.47626
 Alpha virt. eigenvalues --    0.51667   0.55587   0.56535   0.57709   0.59357

 Mulliken charges:
               1
     1  C   -0.078817
     2  N   -0.033643
     3  N   -0.066556
     4  N   -0.071256
     5  N   -0.151729
     6  H    0.185399
     7  H    0.216603
 Sum of Mulliken charges =   0.00000

 Dipole moment (field-independent basis, Debye):
    X=              2.4427    Y=              4.7364    Z=              0.0016  Tot=              5.3292
 Quadrupole moment (field-independent basis, Debye-Ang):
   XX=            -28.9993   YY=            -26.5166   ZZ=            -28.4053
   XY=              1.8788   XZ=             -0.0001   YZ=              0.0037

                      1                      2                      3
                     A"                     A"                     A"
 Frequencies --    608.8077               707.9267               758.7285
 Red. masses --      1.7186                 2.0318                 7.6937
 Frc consts  --      0.3753                 0.5999                 2.6095
 IR Inten    --     84.0888                 7.4045                 9.9624

                      4                      5                      6
                     A"                     A'                     A'
 Frequencies --    931.4646               995.7970              1034.3536
 Red. masses --      1.3795                 5.2472                 6.9601
 Frc consts  --      0.7052                 3.0657                 4.3874
 IR Inten    --     14.4677                 2.4303                 0.8588

                      7                      8                      9
                     A'                     A'                     A'
 Frequencies --   1086.5085              1103.9144              1180.1205
 Red. masses --      5.3471                 2.8868                 1.8916
 Frc consts  --      3.7191                 2.0727                 1.5522
 IR Inten    --     19.1926                26.6497                15.9337

                     10                     11                     12
                     A'                     A'                     A'
 Frequencies --   1313.2849              1359.8714              1515.3669
 Red. masses --      2.4572                 9.6040                 2.9221
 Frc consts  --      2.4970                10.4640                 3.9535
 IR Inten    --      0.4677                16.3071                13.4427

                     13                     14                     15
                     A'                     A'                     A'
 Frequencies --   1564.4861              3342.5280              3740.8765
 Red. masses --      3.7717                 1.1018                 1.0840
 Frc consts  --      5.4391                 7.2525                 8.9375
 IR Inten    --     17.2490                 1.3424               111.9335

 - Thermochemistry -
 -------------------
 Temperature   298.150 Kelvin.  Pressure   1.00000 Atm.
 Atom     1 has atomic number  6 and mass  12.00000

 Molecular mass:    70.02795 amu.
 Principal axes and moments of inertia in atomic units:
                           1         2         3
     Eigenvalues --   168.67808 171.75030 340.42838
           X            0.84229   0.53903   0.00000
           Y           -0.53903   0.84229   0.00000
           Z            0.00000   0.00000   1.00000
 This molecule is an asymmetric top.
 Rotational symmetry number  1.
 Rotational temperatures (Kelvin)      0.51349     0.50430     0.25443
 Rotational constants (GHZ):          10.69932    10.50794     5.30138
 Zero-point vibrational energy     127067.5 (Joules/Mol)
                                   30.36987 (Kcal/Mol)
 Warning -- explicit consideration of   1 degrees of freedom as
           vibrations may cause significant error
 Vibrational temperatures:    875.94  1018.55  1091.64  1340.17  1432.73
          (Kelvin)           1488.20  1563.24  1588.28  1697.93  1889.52
                             1956.55  2180.27  2250.94  4809.15  5382.28

 Zero-point correction=                           0.048397 (Hartree/Particle)
 Thermal correction to Energy=                    0.051800
 Thermal correction to Enthalpy=                  0.052744
 Thermal correction to Gibbs Free Energy=         0.022348
 Sum of electronic and zero-point Energies=           -257.822082
 Sum of electronic and thermal Energies=              -257.818679
 Sum of electronic and thermal Enthalpies=            -257.817735
 Sum of electronic and thermal Free Energies=         -257.848131

                     E (Thermal)             CV                S
                      KCal/Mol        Cal/Mol-Kelvin    Cal/Mol-Kelvin
 Total                   32.505             10.872             63.974
 Electronic               0.000              0.000              0.000
 Translational            0.889              2.981             38.656
 Rotational               0.889              2.981             23.804
 Vibrational             30.728              4.910              1.514
 Vibration     1          0.968              1.013              0.435

 Optimization completed.
    -- Stationary point found.
 Normal termination of Gaussian 09 at Mon Dec  9 23:18:17 2013.
