 Gaussian 09, Revision D.01,
 Gaussian 09:  EM64L-G09RevD.01 24-Apr-2013

 ---------------------------------------------------------
 #B3LYP/cc-pVDZ integral(grid=ultrafine) opt=z-matrix freq
 ---------------------------------------------------------

 ------------------------------------------------------------------
 1H-tetrazole CH2N4 casno=288948 state=1 config=1 method=68 basis=5
 ------------------------------------------------------------------
 Symbolic Z-matrix:
 Charge =  0 Multiplicity = 1

 SCF Done:  E(RB3LYP) =  -258.267308210     A.U. after   14 cycles
 SCF Done:  E(RB3LYP) =  -258.272025041     A.U. after   12 cycles
 SCF Done:  E(RB3LYP) =  -258.272099232     A.U. after   10 cycles
 SCF Done:  E(RB3LYP) =  -258.271854750     A.U. after   11 cycles
 SCF Done:  E(RB3LYP) =  -258.272108559     A.U. after    9 cycles
 SCF Done:  E(RB3LYP) =  -258.272110724     A.U. after    9 cycles
 SCF Done:  E(RB3LYP) =  -258.272072467     A.U. after   10 cycles
 SCF Done:  E(RB3LYP) =  -258.272111009     A.U. after    7 cycles
 SCF Done:  E(RB3LYP) =  -258.272111111     A.U. after    7 cycles
 SCF Done:  E(RB3LYP) =  -258.272111172     A.U. after    7 cycles
 SCF Done:  E(RB3LYP) =  -258.272045088     A.U. after   11 cycles
 SCF Done:  E(RB3LYP) =  -258.272111193     A.U. after    6 cycles
 SCF Done:  E(RB3LYP) =  -258.272111193     A.U. after    6 cycles
 SCF Done:  E(RB3LYP) =  -258.272111203     A.U. after    7 cycles
 SCF Done:  E(RB3LYP) =  -258.272110741     A.U. after    8 cycles
 SCF Done:  E(RB3LYP) =  -258.262315881     A.U. after   13 cycles
 SCF Done:  E(RB3LYP) =  -258.272111203     A.U. after    6 cycles
 SCF Done:  E(RB3LYP) =  -258.272099138     A.U. after    9 cycles
 SCF Done:  E(RB3LYP) =  -258.272111202     A.U. after    6 cycles
 Optimization completed.
    -- Stationary point found.
 Normal termination of Gaussian 09 at Wed Dec  4 11:18:49 2013.

 -------------------------------------------------------------------
 #N Geom=AllCheck Guess=TCheck SCRF=Check GenChk RB3LYP/CC-pVDZ Freq
 -------------------------------------------------------------------

 Structure from the checkpoint file:  "/tmp/rdj3/g09-16643/Gau-26345.chk"
 ------------------------------------------------------------------
 1H-tetrazole CH2N4 casno=288948 state=1 config=1 method=68 basis=5
 ------------------------------------------------------------------
 Charge =  0 Multiplicity = 1

                         Standard orientation:
 ---------------------------------------------------------------------
 Center     Atomic      Atomic             Coordinates (Angstroms)
 Number     Number       Type             X           Y           Z
 ---------------------------------------------------------------------
      1          6           0        1.069347    0.233362    0.000000
      2          7           0        0.000000    1.056866    0.000000
      3          7           0       -1.121382    0.303146    0.000000
      4          7           0       -0.724956   -0.925342    0.000000
      5          7           0        0.637285   -1.010639    0.000000
      6          1           0        2.104677    0.562303    0.000000
      7          1           0       -0.057392    2.069306    0.000000
 ---------------------------------------------------------------------

 SCF Done:  E(RB3LYP) =  -258.272111202     A.U. after    1 cycles

 The electronic state is 1-A'.
 Alpha  occ. eigenvalues --  -14.44233 -14.40515 -14.38726 -14.35989 -10.27971
 Alpha  occ. eigenvalues --   -1.14450  -0.94826  -0.89591  -0.68019  -0.66603
 Alpha  occ. eigenvalues --   -0.59624  -0.49953  -0.49737  -0.37977  -0.33271
 Alpha  occ. eigenvalues --   -0.31124  -0.30427  -0.29099
 Alpha virt. eigenvalues --   -0.02268   0.01442   0.03057   0.07517   0.17547
 Alpha virt. eigenvalues --    0.18977   0.26087   0.28846   0.37507   0.43162
 Alpha virt. eigenvalues --    0.45331   0.53335   0.56316   0.57453   0.65055

 Mulliken charges:
               1
     1  C    0.194863
     2  N   -0.029024
     3  N   -0.070778
     4  N   -0.087501
     5  N   -0.173763
     6  H    0.047234
     7  H    0.118970
 Sum of Mulliken charges =   0.00000

 Dipole moment (field-independent basis, Debye):
    X=              2.3700    Y=              4.6163    Z=              0.0000  Tot=              5.1891
 Quadrupole moment (field-independent basis, Debye-Ang):
   XX=            -28.6165   YY=            -26.0158   ZZ=            -27.9097
   XY=              1.7170   XZ=              0.0000   YZ=              0.0000

  Exact polarizability:  37.936   1.143  37.152   0.000   0.000  16.052
 Approx polarizability:  66.881   0.639  70.742   0.000   0.000  24.766

                      1                      2                      3
                     A"                     A"                     A"
 Frequencies --    575.6605               690.3811               740.3438
 Red. masses --      1.7038                 2.0467                 8.0771
 Frc consts  --      0.3327                 0.5747                 2.6084
 IR Inten    --     75.1966                 6.3854                 8.0260

                      4                      5                      6
                     A"                     A'                     A'
 Frequencies --    853.1702               967.9730              1008.8325
 Red. masses --      1.3725                 4.2114                 5.5401
 Frc consts  --      0.5886                 2.3249                 3.3220
 IR Inten    --     16.4554                 3.8460                 0.4850

                      7                      8                      9
                     A'                     A'                     A'
 Frequencies --   1043.8056              1062.0857              1137.9434
 Red. masses --      4.4531                 3.1215                 2.1619
 Frc consts  --      2.8586                 2.0746                 1.6494
 IR Inten    --     19.4769                26.4886                16.5229

                     10                     11                     12
                     A'                     A'                     A'
 Frequencies --   1256.9288              1301.0657              1454.2716
 Red. masses --      2.3788                10.4087                 3.2889
 Frc consts  --      2.2142                10.3811                 4.0982
 IR Inten    --      2.2707                14.9225                 8.0137

                     13                     14                     15
                     A'                     A'                     A'
 Frequencies --   1504.2810              3282.6307              3628.1849
 Red. masses --      3.7282                 1.1011                 1.0845
 Frc consts  --      4.9706                 6.9905                 8.4115
 IR Inten    --     14.0781                 1.5396                88.4914

 - Thermochemistry -
 -------------------
 Temperature   298.150 Kelvin.  Pressure   1.00000 Atm.
 Atom     1 has atomic number  6 and mass  12.00000

 Molecular mass:    70.02795 amu.
 Principal axes and moments of inertia in atomic units:
                           1         2         3
     Eigenvalues --   171.99053 175.10558 347.09611
           X            0.84558   0.53386   0.00000
           Y           -0.53386   0.84558   0.00000
           Z            0.00000   0.00000   1.00000
 This molecule is an asymmetric top.
 Rotational symmetry number  1.
 Rotational temperatures (Kelvin)      0.50360     0.49464     0.24954
 Rotational constants (GHZ):          10.49326    10.30659     5.19954
 Zero-point vibrational energy     122662.4 (Joules/Mol)
                                   29.31703 (Kcal/Mol)
 Warning -- explicit consideration of   1 degrees of freedom as
           vibrations may cause significant error
 Vibrational temperatures:    828.25   993.30  1065.19  1227.52  1392.70
          (Kelvin)           1451.48  1501.80  1528.10  1637.24  1808.44
                             1871.94  2092.37  2164.32  4722.97  5220.14

 Zero-point correction=                           0.046720 (Hartree/Particle)
 Thermal correction to Energy=                    0.050199
 Thermal correction to Enthalpy=                  0.051143
 Thermal correction to Gibbs Free Energy=         0.020617
 Sum of electronic and zero-point Energies=           -258.225392
 Sum of electronic and thermal Energies=              -258.221913
 Sum of electronic and thermal Enthalpies=            -258.220969
 Sum of electronic and thermal Free Energies=         -258.251494

                     E (Thermal)             CV                S
                      KCal/Mol        Cal/Mol-Kelvin    Cal/Mol-Kelvin
 Total                   31.500             11.370             64.246
 Electronic               0.000              0.000              0.000
 Translational            0.889              2.981             38.656
 Rotational               0.889              2.981             23.862
 Vibrational             29.723              5.409              1.728
 Vibration     1          0.932              1.084              0.493

 Normal termination of Gaussian 09 at Wed Dec  4 11:19:05 2013.
