 Gaussian 09, Revision D.01,
 Gaussian 09:  EM64L-G09RevD.01 24-Apr-2013

 -------------------------------------------------------
 #B3LYP/3-21G integral(grid=ultrafine) opt=z-matrix freq
 -------------------------------------------------------

 ------------------------------------------------------------------
 1H-tetrazole CH2N4 casno=288948 state=1 config=1 method=68 basis=2
 ------------------------------------------------------------------
 Symbolic Z-matrix:
 Charge =  0 Multiplicity = 1

 SCF Done:  E(RB3LYP) =  -256.765878448     A.U. after   14 cycles
 SCF Done:  E(RB3LYP) =  -256.785471940     A.U. after   15 cycles
 SCF Done:  E(RB3LYP) =  -256.786919094     A.U. after   13 cycles
 SCF Done:  E(RB3LYP) =  -256.785228588     A.U. after   13 cycles
 SCF Done:  E(RB3LYP) =  -256.787287129     A.U. after   11 cycles
 SCF Done:  E(RB3LYP) =  -256.787357295     A.U. after   10 cycles
 SCF Done:  E(RB3LYP) =  -256.786990656     A.U. after   13 cycles
 SCF Done:  E(RB3LYP) =  -256.787373640     A.U. after    9 cycles
 SCF Done:  E(RB3LYP) =  -256.787383592     A.U. after   10 cycles
 SCF Done:  E(RB3LYP) =  -256.787379980     A.U. after   11 cycles
 SCF Done:  E(RB3LYP) =  -256.787387815     A.U. after    7 cycles
 SCF Done:  E(RB3LYP) =  -256.787389279     A.U. after    9 cycles
 SCF Done:  E(RB3LYP) =  -256.787389592     A.U. after    9 cycles
 SCF Done:  E(RB3LYP) =  -256.787389727     A.U. after    8 cycles
 Optimization completed.
    -- Stationary point found.
 Normal termination of Gaussian 09 at Wed Dec  4 11:14:01 2013.

 -----------------------------------------------------------------
 #N Geom=AllCheck Guess=TCheck SCRF=Check GenChk RB3LYP/3-21G Freq
 -----------------------------------------------------------------

 Structure from the checkpoint file:  "/tmp/rdj3/g09-16643/Gau-20916.chk"
 ------------------------------------------------------------------
 1H-tetrazole CH2N4 casno=288948 state=1 config=1 method=68 basis=2
 ------------------------------------------------------------------
 Charge =  0 Multiplicity = 1

                         Standard orientation:
 ---------------------------------------------------------------------
 Center     Atomic      Atomic             Coordinates (Angstroms)
 Number     Number       Type             X           Y           Z
 ---------------------------------------------------------------------
      1          6           0        1.079727    0.260185    0.000000
      2          7           0        0.000000    1.085375    0.000000
      3          7           0       -1.172403    0.287255    0.000000
      4          7           0       -0.744541   -0.968737    0.000000
      5          7           0        0.701696   -1.012260    0.000000
      6          1           0        2.098101    0.601891    0.000000
      7          1           0       -0.069723    2.095565    0.000000
 ---------------------------------------------------------------------

 SCF Done:  E(RB3LYP) =  -256.787389727     A.U. after    1 cycles

 The electronic state is 1-A'.
 Alpha  occ. eigenvalues --  -14.37179 -14.34728 -14.32853 -14.29561 -10.23262
 Alpha  occ. eigenvalues --   -1.14087  -0.94399  -0.91433  -0.67752  -0.66858
 Alpha  occ. eigenvalues --   -0.60416  -0.49797  -0.48687  -0.36988  -0.32856
 Alpha  occ. eigenvalues --   -0.31536  -0.30157  -0.29127
 Alpha virt. eigenvalues --   -0.03483   0.00623   0.07094   0.09415   0.15991
 Alpha virt. eigenvalues --    0.19321   0.25324   0.34789   0.38271   0.66371
 Alpha virt. eigenvalues --    0.68726   0.79851   0.82895   0.91317   1.00840

 Mulliken charges:
               1
     1  C    0.335584
     2  N   -0.525677
     3  N   -0.031157
     4  N   -0.078217
     5  N   -0.334937
     6  H    0.269305
     7  H    0.365099
 Sum of Mulliken charges =   0.00000

 Dipole moment (field-independent basis, Debye):
    X=              2.4344    Y=              4.8701    Z=              0.0000  Tot=              5.4447
 Quadrupole moment (field-independent basis, Debye-Ang):
   XX=            -29.0122   YY=            -26.4265   ZZ=            -28.4923
   XY=              1.9791   XZ=              0.0000   YZ=              0.0000

  Exact polarizability:  35.012   1.291  34.795   0.000   0.000  11.304
 Approx polarizability:  66.839  -0.551  75.063   0.000   0.000  14.655

                      1                      2                      3
                     A"                     A"                     A"
 Frequencies --    624.8713               674.7206               683.4780
 Red. masses --      2.5869                 1.4179                 8.2216
 Frc consts  --      0.5951                 0.3803                 2.2628
 IR Inten    --     94.3375                53.1527                11.0725

                      4                      5                      6
                     A'                     A'                     A"
 Frequencies --    763.7694               847.6204               916.6356
 Red. masses --     10.3664                 6.4940                 1.3847
 Frc consts  --      3.5629                 2.7490                 0.6855
 IR Inten    --      9.9254                15.9596                15.7379

                      7                      8                      9
                     A'                     A'                     A'
 Frequencies --    979.6139              1011.0757              1076.1576
 Red. masses --      4.7607                 6.5294                 7.1848
 Frc consts  --      2.6917                 3.9327                 4.9025
 IR Inten    --      7.6147                 8.6664                 3.0095

                     10                     11                     12
                     A'                     A'                     A'
 Frequencies --   1142.2220              1216.5667              1360.2140
 Red. masses --      2.1630                 2.1723                 2.6091
 Frc consts  --      1.6627                 1.8943                 2.8442
 IR Inten    --     13.4464                 7.5322                 5.1999

                     13                     14                     15
                     A'                     A'                     A'
 Frequencies --   1436.2203              3321.4092              3589.0675
 Red. masses --      2.1850                 1.0993                 1.0845
 Frc consts  --      2.6555                 7.1449                 8.2310
 IR Inten    --     39.3120                 2.1685                95.1100

 - Thermochemistry -
 -------------------
 Temperature   298.150 Kelvin.  Pressure   1.00000 Atm.
 Atom     1 has atomic number  6 and mass  12.00000

 Molecular mass:    70.02795 amu.
 Principal axes and moments of inertia in atomic units:
                           1         2         3
     Eigenvalues --   180.80222 186.73225 367.53448
           X            0.99626   0.08637   0.00000
           Y           -0.08637   0.99626   0.00000
           Z            0.00000   0.00000   1.00000
 This molecule is an asymmetric top.
 Rotational symmetry number  1.
 Rotational temperatures (Kelvin)      0.47905     0.46384     0.23566
 Rotational constants (GHZ):           9.98185     9.66486     4.91040
 Zero-point vibrational energy     117495.1 (Joules/Mol)
                                   28.08200 (Kcal/Mol)
 Vibrational temperatures:    899.05   970.77   983.37  1098.89  1219.54
          (Kelvin)           1318.83  1409.44  1454.71  1548.35  1643.40
                             1750.37  1957.04  2066.40  4778.76  5163.86

 Zero-point correction=                           0.044752 (Hartree/Particle)
 Thermal correction to Energy=                    0.048334
 Thermal correction to Enthalpy=                  0.049278
 Thermal correction to Gibbs Free Energy=         0.018542
 Sum of electronic and zero-point Energies=           -256.742638
 Sum of electronic and thermal Energies=              -256.739056
 Sum of electronic and thermal Enthalpies=            -256.738112
 Sum of electronic and thermal Free Energies=         -256.768848

                     E (Thermal)             CV                S
                      KCal/Mol        Cal/Mol-Kelvin    Cal/Mol-Kelvin
 Total                   30.330             12.167             64.690
 Electronic               0.000              0.000              0.000
 Translational            0.889              2.981             38.656
 Rotational               0.889              2.981             24.032
 Vibrational             28.553              6.206              2.001

 Normal termination of Gaussian 09 at Wed Dec  4 11:14:07 2013.
