 Gaussian 09, Revision D.01,
 Gaussian 09:  EM64L-G09RevD.01 24-Apr-2013

 ----------------------------------------------------------
 #B3LYP/6-31+G** integral(grid=ultrafine) opt=z-matrix freq
 ----------------------------------------------------------

 ------------------------------------------------------------------
 1H-tetrazole CH2N4 casno=288948 state=1 config=1 method=68 basis=4
 ------------------------------------------------------------------
 Symbolic Z-matrix:
 Charge =  0 Multiplicity = 1

 SCF Done:  E(RB3LYP) =  -258.263464072     A.U. after   12 cycles
 SCF Done:  E(RB3LYP) =  -258.267944544     A.U. after   11 cycles
 SCF Done:  E(RB3LYP) =  -258.268025849     A.U. after   11 cycles
 SCF Done:  E(RB3LYP) =  -258.267381769     A.U. after   11 cycles
 SCF Done:  E(RB3LYP) =  -258.268038732     A.U. after    9 cycles
 SCF Done:  E(RB3LYP) =  -258.268042348     A.U. after    9 cycles
 SCF Done:  E(RB3LYP) =  -258.268047044     A.U. after    9 cycles
 SCF Done:  E(RB3LYP) =  -258.268017330     A.U. after   10 cycles
 SCF Done:  E(RB3LYP) =  -258.268047042     A.U. after    4 cycles
 SCF Done:  E(RB3LYP) =  -258.268047817     A.U. after    8 cycles
 SCF Done:  E(RB3LYP) =  -258.268010998     A.U. after   10 cycles
 SCF Done:  E(RB3LYP) =  -258.268048047     A.U. after    7 cycles
 SCF Done:  E(RB3LYP) =  -258.268048051     A.U. after    7 cycles
 SCF Done:  E(RB3LYP) =  -258.268048056     A.U. after    7 cycles
 Optimization completed.
    -- Stationary point found.
 Normal termination of Gaussian 09 at Wed Dec  4 11:17:27 2013.

 ----------------------------------------------------------------------
 #N Geom=AllCheck Guess=TCheck SCRF=Check GenChk RB3LYP/6-31+G(d,p) Fre
 q
 ----------------------------------------------------------------------

 Structure from the checkpoint file:  "/tmp/rdj3/g09-16643/Gau-25066.chk"
 ------------------------------------------------------------------
 1H-tetrazole CH2N4 casno=288948 state=1 config=1 method=68 basis=4
 ------------------------------------------------------------------
 Charge =  0 Multiplicity = 1

                         Standard orientation:
 ---------------------------------------------------------------------
 Center     Atomic      Atomic             Coordinates (Angstroms)
 Number     Number       Type             X           Y           Z
 ---------------------------------------------------------------------
      1          6           0        1.069937    0.236738    0.000000
      2          7           0        0.000000    1.056617    0.000000
      3          7           0       -1.122412    0.300687    0.000000
      4          7           0       -0.723810   -0.928088    0.000000
      5          7           0        0.638148   -1.007301    0.000000
      6          1           0        2.099156    0.561043    0.000000
      7          1           0       -0.062259    2.065122    0.000000
 ---------------------------------------------------------------------

 SCF Done:  E(RB3LYP) =  -258.268048056     A.U. after    1 cycles

 The electronic state is 1-A'.
 Alpha  occ. eigenvalues --  -14.46381 -14.43020 -14.41282 -14.38333 -10.29459
 Alpha  occ. eigenvalues --   -1.15932  -0.96270  -0.91058  -0.69505  -0.68009
 Alpha  occ. eigenvalues --   -0.61075  -0.51402  -0.51052  -0.39535  -0.34706
 Alpha  occ. eigenvalues --   -0.32499  -0.32046  -0.30713
 Alpha virt. eigenvalues --   -0.04002  -0.01857  -0.00550   0.01858   0.03991
 Alpha virt. eigenvalues --    0.05083   0.06927   0.08590   0.10621   0.12464
 Alpha virt. eigenvalues --    0.13861   0.14535   0.16298   0.17661   0.17733

 Mulliken charges:
               1
     1  C    0.059762
     2  N   -0.275806
     3  N   -0.021246
     4  N   -0.020275
     5  N   -0.253855
     6  H    0.178951
     7  H    0.332469
 Sum of Mulliken charges =   0.00000

 Dipole moment (field-independent basis, Debye):
    X=              2.6285    Y=              4.9009    Z=              0.0000  Tot=              5.5613
 Quadrupole moment (field-independent basis, Debye-Ang):
   XX=            -29.5722   YY=            -27.0096   ZZ=            -28.9541
   XY=              1.9512   XZ=              0.0000   YZ=              0.0000

  Exact polarizability:  44.168   0.388  43.842   0.000   0.000  24.259
 Approx polarizability:  71.803  -0.060  76.137   0.000   0.000  34.899

                      1                      2                      3
                     A"                     A"                     A"
 Frequencies --    573.0755               685.4108               731.2357
 Red. masses --      1.7806                 1.9604                 8.6781
 Frc consts  --      0.3445                 0.5426                 2.7340
 IR Inten    --     86.1873                 9.9649                 7.8916

                      4                      5                      6
                     A"                     A'                     A'
 Frequencies --    851.1773               969.0247              1008.7367
 Red. masses --      1.3480                 4.9661                 6.6728
 Frc consts  --      0.5754                 2.7475                 4.0005
 IR Inten    --     21.8843                 4.3504                 0.1910

                      7                      8                      9
                     A'                     A'                     A'
 Frequencies --   1043.3949              1068.2817              1145.4569
 Red. masses --      4.6829                 3.7300                 1.9047
 Frc consts  --      3.0037                 2.5080                 1.4724
 IR Inten    --     17.1354                29.7088                16.0210

                     10                     11                     12
                     A'                     A'                     A'
 Frequencies --   1268.2535              1296.7320              1458.3912
 Red. masses --      2.2905                10.7766                 3.1644
 Frc consts  --      2.1706                10.6766                 3.9655
 IR Inten    --      2.5860                17.1556                10.0104

                     13                     14                     15
                     A'                     A'                     A'
 Frequencies --   1510.2340              3301.0514              3660.8530
 Red. masses --      3.2211                 1.1006                 1.0840
 Frc consts  --      4.3285                 7.0664                 8.5597
 IR Inten    --     18.1140                 2.2005                98.6024

 - Thermochemistry -
 -------------------
 Temperature   298.150 Kelvin.  Pressure   1.00000 Atm.
 Atom     1 has atomic number  6 and mass  12.00000

 Molecular mass:    70.02795 amu.
 Principal axes and moments of inertia in atomic units:
                           1         2         3
     Eigenvalues --   172.15972 174.81796 346.97768
           X            0.89313   0.44980   0.00000
           Y           -0.44980   0.89313   0.00000
           Z            0.00000   0.00000   1.00000
 This molecule is an asymmetric top.
 Rotational symmetry number  1.
 Rotational temperatures (Kelvin)      0.50310     0.49545     0.24962
 Rotational constants (GHZ):          10.48295    10.32355     5.20132
 Zero-point vibrational energy     123043.8 (Joules/Mol)
                                   29.40816 (Kcal/Mol)
 Warning -- explicit consideration of   1 degrees of freedom as
           vibrations may cause significant error
 Vibrational temperatures:    824.53   986.15  1052.08  1224.65  1394.21
          (Kelvin)           1451.35  1501.21  1537.02  1648.05  1824.73
                             1865.71  2098.30  2172.89  4749.47  5267.14

 Zero-point correction=                           0.046865 (Hartree/Particle)
 Thermal correction to Energy=                    0.050349
 Thermal correction to Enthalpy=                  0.051293
 Thermal correction to Gibbs Free Energy=         0.020761
 Sum of electronic and zero-point Energies=           -258.221183
 Sum of electronic and thermal Energies=              -258.217699
 Sum of electronic and thermal Enthalpies=            -258.216755
 Sum of electronic and thermal Free Energies=         -258.247288

                     E (Thermal)             CV                S
                      KCal/Mol        Cal/Mol-Kelvin    Cal/Mol-Kelvin
 Total                   31.595             11.386             64.261
 Electronic               0.000              0.000              0.000
 Translational            0.889              2.981             38.656
 Rotational               0.889              2.981             23.861
 Vibrational             29.817              5.424              1.744
 Vibration     1          0.929              1.089              0.498

 Normal termination of Gaussian 09 at Wed Dec  4 11:17:51 2013.
