 Gaussian 09, Revision D.01,
 Gaussian 09:  EM64L-G09RevD.01 24-Apr-2013

 -------------------------------------------------------------
 #B3LYP/aug-cc-pVDZ integral(grid=ultrafine) opt=z-matrix freq
 -------------------------------------------------------------

 -------------------------------------------------------------------
 1H-tetrazole CH2N4 casno=288948 state=1 config=1 method=68 basis=17
 -------------------------------------------------------------------
 Symbolic Z-matrix:
 Charge =  0 Multiplicity = 1

 SCF Done:  E(RB3LYP) =  -258.289533345     A.U. after   12 cycles
 SCF Done:  E(RB3LYP) =  -258.294328026     A.U. after   10 cycles
 SCF Done:  E(RB3LYP) =  -258.294416267     A.U. after   11 cycles
 SCF Done:  E(RB3LYP) =  -258.293593243     A.U. after   11 cycles
 SCF Done:  E(RB3LYP) =  -258.294426926     A.U. after    9 cycles
 SCF Done:  E(RB3LYP) =  -258.294431480     A.U. after    9 cycles
 SCF Done:  E(RB3LYP) =  -258.294436335     A.U. after    9 cycles
 SCF Done:  E(RB3LYP) =  -258.294337378     A.U. after   10 cycles
 SCF Done:  E(RB3LYP) =  -258.289533306     A.U. after   12 cycles
 SCF Done:  E(RB3LYP) =  -258.294436416     A.U. after    5 cycles
 SCF Done:  E(RB3LYP) =  -258.294234514     A.U. after   11 cycles
 SCF Done:  E(RB3LYP) =  -258.294436702     A.U. after    7 cycles
 SCF Done:  E(RB3LYP) =  -258.294437049     A.U. after    8 cycles
 SCF Done:  E(RB3LYP) =  -258.294437125     A.U. after    7 cycles
 Optimization completed.
    -- Stationary point found.
 Normal termination of Gaussian 09 at Wed Dec  4 10:22:58 2013.

 ----------------------------------------------------------------------
 #N Geom=AllCheck Guess=TCheck SCRF=Check GenChk RB3LYP/Aug-CC-pVDZ Fre
 q
 ----------------------------------------------------------------------

 Structure from the checkpoint file:  "/tmp/rdj3/g09-16643/Gau-16699.chk"
 -------------------------------------------------------------------
 1H-tetrazole CH2N4 casno=288948 state=1 config=1 method=68 basis=17
 -------------------------------------------------------------------
 Charge =  0 Multiplicity = 1

                         Standard orientation:
 ---------------------------------------------------------------------
 Center     Atomic      Atomic             Coordinates (Angstroms)
 Number     Number       Type             X           Y           Z
 ---------------------------------------------------------------------
      1          6           0        1.070168    0.236072    0.000000
      2          7           0        0.000000    1.056387    0.000000
      3          7           0       -1.122237    0.302912    0.000000
      4          7           0       -0.724769   -0.927989    0.000000
      5          7           0        0.637812   -1.009199    0.000000
      6          1           0        2.102950    0.562649    0.000000
      7          1           0       -0.059597    2.066137    0.000000
 ---------------------------------------------------------------------

 SCF Done:  E(RB3LYP) =  -258.294437125     A.U. after    1 cycles

 The electronic state is 1-A'.
 Alpha  occ. eigenvalues --  -14.45390 -14.42240 -14.40629 -14.37645 -10.28880
 Alpha  occ. eigenvalues --   -1.15635  -0.96060  -0.90807  -0.69250  -0.67843
 Alpha  occ. eigenvalues --   -0.60804  -0.51121  -0.50880  -0.39435  -0.34538
 Alpha  occ. eigenvalues --   -0.32306  -0.32002  -0.30719
 Alpha virt. eigenvalues --   -0.03991  -0.03017  -0.00756   0.00258   0.03367
 Alpha virt. eigenvalues --    0.04253   0.05497   0.06824   0.08186   0.08845
 Alpha virt. eigenvalues --    0.09946   0.10824   0.12161   0.13229   0.14383

 Mulliken charges:
               1
     1  C    0.847376
     2  N    0.133815
     3  N   -0.111045
     4  N   -0.255966
     5  N   -0.225572
     6  H   -0.282147
     7  H   -0.106461
 Sum of Mulliken charges =   0.00000

 Dipole moment (field-independent basis, Debye):
    X=              2.5324    Y=              4.7447    Z=              0.0000  Tot=              5.3782
 Quadrupole moment (field-independent basis, Debye-Ang):
   XX=            -29.3835   YY=            -26.9149   ZZ=            -28.9246
   XY=              1.9005   XZ=              0.0000   YZ=              0.0000

  Exact polarizability:  46.270   0.544  45.767   0.000   0.000  26.517
 Approx polarizability:  76.129   0.414  79.834   0.000   0.000  39.448

                      1                      2                      3
                     A"                     A"                     A"
 Frequencies --    592.9536               688.8942               737.5954
 Red. masses --      1.7164                 1.9405                 8.9162
 Frc consts  --      0.3556                 0.5426                 2.8580
 IR Inten    --     80.3523                 7.5195                 7.1373

                      4                      5                      6
                     A"                     A'                     A'
 Frequencies --    854.5661               967.7219              1008.4570
 Red. masses --      1.3920                 4.5518                 6.5775
 Frc consts  --      0.5989                 2.5115                 3.9412
 IR Inten    --     18.1145                 3.8623                 0.1277

                      7                      8                      9
                     A'                     A'                     A'
 Frequencies --   1045.7422              1064.2479              1137.9326
 Red. masses --      4.4914                 3.3011                 2.0305
 Frc consts  --      2.8939                 2.2029                 1.5491
 IR Inten    --     16.3226                28.6924                14.9594

                     10                     11                     12
                     A'                     A'                     A'
 Frequencies --   1260.2057              1291.4332              1453.4653
 Red. masses --      2.3846                10.9542                 3.3322
 Frc consts  --      2.2313                10.7640                 4.1476
 IR Inten    --      2.1057                12.5174                 8.8849

                     13                     14                     15
                     A'                     A'                     A'
 Frequencies --   1502.1729              3285.3665              3640.4300
 Red. masses --      3.1862                 1.1013                 1.0843
 Frc consts  --      4.2361                 7.0038                 8.4663
 IR Inten    --     16.4397                 2.0099                91.8718

 - Thermochemistry -
 -------------------
 Temperature   298.150 Kelvin.  Pressure   1.00000 Atm.
 Atom     1 has atomic number  6 and mass  12.00000

 Molecular mass:    70.02795 amu.
 Principal axes and moments of inertia in atomic units:
                           1         2         3
     Eigenvalues --   172.26875 175.04569 347.31445
           X            0.87289   0.48792   0.00000
           Y           -0.48792   0.87289   0.00000
           Z            0.00000   0.00000   1.00000
 This molecule is an asymmetric top.
 Rotational symmetry number  1.
 Rotational temperatures (Kelvin)      0.50278     0.49481     0.24938
 Rotational constants (GHZ):          10.47631    10.31011     5.19627
 Zero-point vibrational energy     122803.8 (Joules/Mol)
                                   29.35080 (Kcal/Mol)
 Warning -- explicit consideration of   1 degrees of freedom as
           vibrations may cause significant error
 Vibrational temperatures:    853.13   991.16  1061.23  1229.53  1392.33
          (Kelvin)           1450.94  1504.59  1531.21  1637.23  1813.15
                             1858.08  2091.21  2161.29  4726.90  5237.76

 Zero-point correction=                           0.046773 (Hartree/Particle)
 Thermal correction to Energy=                    0.050244
 Thermal correction to Enthalpy=                  0.051188
 Thermal correction to Gibbs Free Energy=         0.020675
 Sum of electronic and zero-point Energies=           -258.247664
 Sum of electronic and thermal Energies=              -258.244194
 Sum of electronic and thermal Enthalpies=            -258.243249
 Sum of electronic and thermal Free Energies=         -258.273762

                     E (Thermal)             CV                S
                      KCal/Mol        Cal/Mol-Kelvin    Cal/Mol-Kelvin
 Total                   31.528             11.339             64.220
 Electronic               0.000              0.000              0.000
 Translational            0.889              2.981             38.656
 Rotational               0.889              2.981             23.864
 Vibrational             29.751              5.378              1.700
 Vibration     1          0.951              1.047              0.462

 Normal termination of Gaussian 09 at Wed Dec  4 10:23:47 2013.
