 Gaussian 09, Revision D.01,
 Gaussian 09:  EM64L-G09RevD.01 24-Apr-2013

 ------------------------------------------------
 #B3LYP/6-311G* integral(grid=ultrafine) opt freq
 ------------------------------------------------

 ------------------------------------------------------------------
 1H-tetrazole CH2N4 casno=288948 state=1 config=1 method=68 basis=7
 ------------------------------------------------------------------
 Symbolic Z-matrix:
 Charge =  0 Multiplicity = 1

 SCF Done:  E(RB3LYP) =  -258.308406541     A.U. after   14 cycles
 SCF Done:  E(RB3LYP) =  -258.311908034     A.U. after   12 cycles
 SCF Done:  E(RB3LYP) =  -258.311971643     A.U. after    9 cycles
 SCF Done:  E(RB3LYP) =  -258.311976008     A.U. after    9 cycles
 SCF Done:  E(RB3LYP) =  -258.311980331     A.U. after    9 cycles
 Optimization completed.
    -- Stationary point found.
 Normal termination of Gaussian 09 at Mon Dec 16 15:03:30 2013.

 ---------------------------------------------------------------------
 #N Geom=AllCheck Guess=TCheck SCRF=Check GenChk RB3LYP/6-311G(d) Freq
 ---------------------------------------------------------------------

 Structure from the checkpoint file:  "/tmp/rdj3/g09-20196/Gau-24228.chk"
 ------------------------------------------------------------------
 1H-tetrazole CH2N4 casno=288948 state=1 config=1 method=68 basis=7
 ------------------------------------------------------------------
 Charge =  0 Multiplicity = 1

                         Standard orientation:
 ---------------------------------------------------------------------
 Center     Atomic      Atomic             Coordinates (Angstroms)
 Number     Number       Type             X           Y           Z
 ---------------------------------------------------------------------
      1          6           0        1.067124    0.233804    0.000000
      2          7           0        0.000000    1.055122    0.000000
      3          7           0       -1.120352    0.299577    0.000000
      4          7           0       -0.724086   -0.924213    0.000000
      5          7           0        0.639523   -1.005259    0.000000
      6          1           0        2.094600    0.559589    0.000000
      7          1           0       -0.062933    2.061001    0.000000
 ---------------------------------------------------------------------

 SCF Done:  E(RB3LYP) =  -258.311980331     A.U. after    1 cycles

 The electronic state is 1-A'.
 Alpha  occ. eigenvalues --  -14.42840 -14.39352 -14.37543 -14.34603 -10.26734
 Alpha  occ. eigenvalues --   -1.15333  -0.95518  -0.90449  -0.68889  -0.67392
 Alpha  occ. eigenvalues --   -0.60678  -0.50882  -0.50502  -0.38774  -0.33958
 Alpha  occ. eigenvalues --   -0.31929  -0.31116  -0.29840
 Alpha virt. eigenvalues --   -0.02902   0.00769   0.01426   0.05839   0.16043
 Alpha virt. eigenvalues --    0.17824   0.21511   0.26889   0.31872   0.38125
 Alpha virt. eigenvalues --    0.39078   0.42714   0.48975   0.53921   0.55262

 Mulliken charges:
               1
     1  C    0.119979
     2  N   -0.418127
     3  N   -0.013581
     4  N   -0.086589
     5  N   -0.225649
     6  H    0.250821
     7  H    0.373146
 Sum of Mulliken charges =   0.00000

 Dipole moment (field-independent basis, Debye):
    X=              2.4912    Y=              4.7894    Z=              0.0000  Tot=              5.3986
 Quadrupole moment (field-independent basis, Debye-Ang):
   XX=            -28.9328   YY=            -26.4134   ZZ=            -28.3656
   XY=              1.8208   XZ=              0.0000   YZ=              0.0000

  Exact polarizability:  38.761   0.992  38.307   0.000   0.000  17.441
 Approx polarizability:  66.790   0.467  71.156   0.000   0.000  26.320

                      1                      2                      3
                     A"                     A"                     A"
 Frequencies --    588.8162               695.4119               739.9388
 Red. masses --      1.8239                 1.9008                 8.1455
 Frc consts  --      0.3726                 0.5416                 2.6276
 IR Inten    --     91.5611                11.0742                 8.8184

                      4                      5                      6
                     A"                     A'                     A'
 Frequencies --    852.1263               961.4764              1015.3632
 Red. masses --      1.3668                 5.6222                 6.3862
 Frc consts  --      0.5847                 3.0622                 3.8791
 IR Inten    --     19.6752                 5.6322                 0.0138

                      7                      8                      9
                     A'                     A'                     A'
 Frequencies --   1031.1032              1065.7981              1145.1829
 Red. masses --      5.1280                 3.2933                 2.0499
 Frc consts  --      3.2122                 2.2041                 1.5839
 IR Inten    --     17.3724                26.6413                17.9664

                     10                     11                     12
                     A'                     A'                     A'
 Frequencies --   1268.7028              1295.8496              1460.0958
 Red. masses --      2.3151                10.2430                 3.1884
 Frc consts  --      2.1956                10.1341                 4.0048
 IR Inten    --      2.1649                16.8854                 8.9424

                     13                     14                     15
                     A'                     A'                     A'
 Frequencies --   1519.1342              3281.3941              3664.5171
 Red. masses --      2.8641                 1.1006                 1.0835
 Frc consts  --      3.8943                 6.9825                 8.5723
 IR Inten    --     18.7225                 0.3467                72.3967

 - Thermochemistry -
 -------------------
 Temperature   298.150 Kelvin.  Pressure   1.00000 Atm.
 Atom     1 has atomic number  6 and mass  12.00000

 Molecular mass:    70.02795 amu.
 Principal axes and moments of inertia in atomic units:
                           1         2         3
     Eigenvalues --   171.18644 174.46279 345.64924
           X            0.89859   0.43880   0.00000
           Y           -0.43880   0.89859   0.00000
           Z            0.00000   0.00000   1.00000
 This molecule is an asymmetric top.
 Rotational symmetry number  1.
 Rotational temperatures (Kelvin)      0.50596     0.49646     0.25058
 Rotational constants (GHZ):          10.54255    10.34456     5.22131
 Zero-point vibrational energy     123125.1 (Joules/Mol)
                                   29.42761 (Kcal/Mol)
 Warning -- explicit consideration of   1 degrees of freedom as
           vibrations may cause significant error
 Vibrational temperatures:    847.17  1000.54  1064.61  1226.02  1383.35
          (Kelvin)           1460.88  1483.53  1533.44  1647.66  1825.38
                             1864.44  2100.75  2185.69  4721.19  5272.42

 Zero-point correction=                           0.046896 (Hartree/Particle)
 Thermal correction to Energy=                    0.050365
 Thermal correction to Enthalpy=                  0.051309
 Thermal correction to Gibbs Free Energy=         0.020804
 Sum of electronic and zero-point Energies=           -258.265084
 Sum of electronic and thermal Energies=              -258.261615
 Sum of electronic and thermal Enthalpies=            -258.260671
 Sum of electronic and thermal Free Energies=         -258.291176

                     E (Thermal)             CV                S
                      KCal/Mol        Cal/Mol-Kelvin    Cal/Mol-Kelvin
 Total                   31.605             11.330             64.204
 Electronic               0.000              0.000              0.000
 Translational            0.889              2.981             38.656
 Rotational               0.889              2.981             23.849
 Vibrational             29.827              5.368              1.699
 Vibration     1          0.946              1.056              0.469

 Optimization completed.
    -- Stationary point found.
 Normal termination of Gaussian 09 at Mon Dec 16 15:03:46 2013.
