 Gaussian 09, Revision D.01,
 Gaussian 09:  EM64L-G09RevD.01 24-Apr-2013

 ---------------------------------------------------------
 #B3LYP/6-31G** integral(grid=ultrafine) opt=z-matrix freq
 ---------------------------------------------------------

 ------------------------------------------------------------------
 1H-tetrazole CH2N4 casno=288948 state=1 config=1 method=68 basis=3
 ------------------------------------------------------------------
 Symbolic Z-matrix:
 Charge =  0 Multiplicity = 1

 SCF Done:  E(RB3LYP) =  -258.251385492     A.U. after   14 cycles
 SCF Done:  E(RB3LYP) =  -258.255863260     A.U. after   12 cycles
 SCF Done:  E(RB3LYP) =  -258.255939663     A.U. after   11 cycles
 SCF Done:  E(RB3LYP) =  -258.255948355     A.U. after   10 cycles
 SCF Done:  E(RB3LYP) =  -258.255891440     A.U. after   11 cycles
 SCF Done:  E(RB3LYP) =  -258.255952219     A.U. after    7 cycles
 SCF Done:  E(RB3LYP) =  -258.255953501     A.U. after    8 cycles
 SCF Done:  E(RB3LYP) =  -258.255648675     A.U. after   10 cycles
 SCF Done:  E(RB3LYP) =  -258.255953677     A.U. after    6 cycles
 SCF Done:  E(RB3LYP) =  -258.255953793     A.U. after    8 cycles
 SCF Done:  E(RB3LYP) =  -258.255953026     A.U. after    8 cycles
 SCF Done:  E(RB3LYP) =  -258.255953832     A.U. after    4 cycles
 Optimization completed.
    -- Stationary point found.
 Normal termination of Gaussian 09 at Wed Dec  4 11:16:14 2013.

 ----------------------------------------------------------------------
 #N Geom=AllCheck Guess=TCheck SCRF=Check GenChk RB3LYP/6-31G(d,p) Freq
 ----------------------------------------------------------------------

 Structure from the checkpoint file:  "/tmp/rdj3/g09-16643/Gau-23944.chk"
 ------------------------------------------------------------------
 1H-tetrazole CH2N4 casno=288948 state=1 config=1 method=68 basis=3
 ------------------------------------------------------------------
 Charge =  0 Multiplicity = 1

                         Standard orientation:
 ---------------------------------------------------------------------
 Center     Atomic      Atomic             Coordinates (Angstroms)
 Number     Number       Type             X           Y           Z
 ---------------------------------------------------------------------
      1          6           0        1.069010    0.236017    0.000000
      2          7           0        0.000000    1.056167    0.000000
      3          7           0       -1.123367    0.301043    0.000000
      4          7           0       -0.723660   -0.927307    0.000000
      5          7           0        0.639815   -1.007576    0.000000
      6          1           0        2.097182    0.563589    0.000000
      7          1           0       -0.060763    2.064015    0.000000
 ---------------------------------------------------------------------

 SCF Done:  E(RB3LYP) =  -258.255953832     A.U. after    1 cycles

 The electronic state is 1-A'.
 Alpha  occ. eigenvalues --  -14.45145 -14.41544 -14.39756 -14.36786 -10.28326
 Alpha  occ. eigenvalues --   -1.14487  -0.94924  -0.89741  -0.68282  -0.66748
 Alpha  occ. eigenvalues --   -0.59930  -0.50234  -0.49818  -0.38200  -0.33396
 Alpha  occ. eigenvalues --   -0.31253  -0.30648  -0.29316
 Alpha virt. eigenvalues --   -0.02391   0.01399   0.05317   0.10487   0.17819
 Alpha virt. eigenvalues --    0.19770   0.27782   0.32059   0.40554   0.50870
 Alpha virt. eigenvalues --    0.51697   0.59092   0.60175   0.63448   0.66042

 Mulliken charges:
               1
     1  C    0.322445
     2  N   -0.339389
     3  N   -0.051484
     4  N   -0.082382
     5  N   -0.307281
     6  H    0.158637
     7  H    0.299453
 Sum of Mulliken charges =   0.00000

 Dipole moment (field-independent basis, Debye):
    X=              2.4738    Y=              4.7212    Z=              0.0000  Tot=              5.3301
 Quadrupole moment (field-independent basis, Debye-Ang):
   XX=            -28.5855   YY=            -26.0262   ZZ=            -28.1010
   XY=              1.7808   XZ=              0.0000   YZ=              0.0000

  Exact polarizability:  37.695   1.027  37.300   0.000   0.000  15.652
 Approx polarizability:  66.405   0.333  70.769   0.000   0.000  24.199

                      1                      2                      3
                     A"                     A"                     A"
 Frequencies --    576.5565               689.9795               736.9993
 Red. masses --      1.7396                 2.0172                 8.3711
 Frc consts  --      0.3407                 0.5658                 2.6790
 IR Inten    --     87.6729                 8.8461                 8.2264

                      4                      5                      6
                     A"                     A'                     A'
 Frequencies --    853.4711               970.1267              1009.1607
 Red. masses --      1.3534                 4.9507                 6.0283
 Frc consts  --      0.5808                 2.7452                 3.6171
 IR Inten    --     16.3202                 4.0684                 0.2934

                      7                      8                      9
                     A'                     A'                     A'
 Frequencies --   1043.7927              1068.3129              1149.8353
 Red. masses --      4.9711                 3.5908                 1.9299
 Frc consts  --      3.1910                 2.4146                 1.5033
 IR Inten    --     17.3166                27.9776                15.8236

                     10                     11                     12
                     A'                     A'                     A'
 Frequencies --   1270.2723              1300.1413              1464.2505
 Red. masses --      2.2897                10.7777                 3.1599
 Frc consts  --      2.1768                10.7339                 3.9917
 IR Inten    --      2.7557                16.2429                 9.2541

                     13                     14                     15
                     A'                     A'                     A'
 Frequencies --   1514.5829              3299.6674              3665.0774
 Red. masses --      3.3156                 1.1003                 1.0837
 Frc consts  --      4.4813                 7.0583                 8.5769
 IR Inten    --     17.6900                 1.0111                86.0347

 - Thermochemistry -
 -------------------
 Temperature   298.150 Kelvin.  Pressure   1.00000 Atm.
 Atom     1 has atomic number  6 and mass  12.00000

 Molecular mass:    70.02795 amu.
 Principal axes and moments of inertia in atomic units:
                           1         2         3
     Eigenvalues --   171.95190 175.01060 346.96250
           X            0.88871   0.45846   0.00000
           Y           -0.45846   0.88871   0.00000
           Z            0.00000   0.00000   1.00000
 This molecule is an asymmetric top.
 Rotational symmetry number  1.
 Rotational temperatures (Kelvin)      0.50371     0.49491     0.24963
 Rotational constants (GHZ):          10.49562    10.31218     5.20155
 Zero-point vibrational energy     123288.5 (Joules/Mol)
                                   29.46666 (Kcal/Mol)
 Warning -- explicit consideration of   1 degrees of freedom as
           vibrations may cause significant error
 Vibrational temperatures:    829.54   992.73  1060.38  1227.95  1395.79
          (Kelvin)           1451.96  1501.78  1537.06  1654.35  1827.64
                             1870.61  2106.73  2179.14  4747.48  5273.22

 Zero-point correction=                           0.046958 (Hartree/Particle)
 Thermal correction to Energy=                    0.050435
 Thermal correction to Enthalpy=                  0.051379
 Thermal correction to Gibbs Free Energy=         0.020857
 Sum of electronic and zero-point Energies=           -258.208996
 Sum of electronic and thermal Energies=              -258.205519
 Sum of electronic and thermal Enthalpies=            -258.204575
 Sum of electronic and thermal Free Energies=         -258.235097

                     E (Thermal)             CV                S
                      KCal/Mol        Cal/Mol-Kelvin    Cal/Mol-Kelvin
 Total                   31.648             11.344             64.239
 Electronic               0.000              0.000              0.000
 Translational            0.889              2.981             38.656
 Rotational               0.889              2.981             23.861
 Vibrational             29.871              5.383              1.722
 Vibration     1          0.933              1.082              0.492

 Normal termination of Gaussian 09 at Wed Dec  4 11:16:29 2013.
