 Gaussian 09, Revision D.01,
 Gaussian 09:  EM64L-G09RevD.01 24-Apr-2013

 ---------------------------------------------
 #B3LYP/TZVP integral(grid=ultrafine) opt freq
 ---------------------------------------------

 -------------------------------------------------------------------
 1H-tetrazole CH2N4 casno=288948 state=1 config=1 method=68 basis=32
 -------------------------------------------------------------------
 Symbolic Z-matrix:
 Charge =  0 Multiplicity = 1

 SCF Done:  E(RB3LYP) =  -258.333322977     A.U. after   14 cycles
 SCF Done:  E(RB3LYP) =  -258.336466353     A.U. after   12 cycles
 SCF Done:  E(RB3LYP) =  -258.336528687     A.U. after   10 cycles
 SCF Done:  E(RB3LYP) =  -258.336544508     A.U. after    9 cycles
 SCF Done:  E(RB3LYP) =  -258.336548836     A.U. after    9 cycles
 Optimization completed.
    -- Stationary point found.
 Normal termination of Gaussian 09 at Mon Dec 16 15:02:52 2013.

 ----------------------------------------------------------------
 #N Geom=AllCheck Guess=TCheck SCRF=Check GenChk RB3LYP/TZVP Freq
 ----------------------------------------------------------------

 Structure from the checkpoint file:  "/tmp/rdj3/g09-20196/Gau-23642.chk"
 -------------------------------------------------------------------
 1H-tetrazole CH2N4 casno=288948 state=1 config=1 method=68 basis=32
 -------------------------------------------------------------------
 Charge =  0 Multiplicity = 1

                         Standard orientation:
 ---------------------------------------------------------------------
 Center     Atomic      Atomic             Coordinates (Angstroms)
 Number     Number       Type             X           Y           Z
 ---------------------------------------------------------------------
      1          6           0        1.066639    0.235157    0.000000
      2          7           0        0.000000    1.054202    0.000000
      3          7           0       -1.119713    0.297434    0.000000
      4          7           0       -0.723756   -0.924393    0.000000
      5          7           0        0.639248   -1.002974    0.000000
      6          1           0        2.092975    0.559025    0.000000
      7          1           0       -0.063261    2.060146    0.000000
 ---------------------------------------------------------------------

 SCF Done:  E(RB3LYP) =  -258.336548836     A.U. after    1 cycles

 The electronic state is 1-A'.
 Alpha  occ. eigenvalues --  -14.43813 -14.40517 -14.38755 -14.35753 -10.27417
 Alpha  occ. eigenvalues --   -1.16109  -0.96113  -0.91140  -0.69348  -0.68026
 Alpha  occ. eigenvalues --   -0.61173  -0.51375  -0.51126  -0.39418  -0.34613
 Alpha  occ. eigenvalues --   -0.32589  -0.31752  -0.30486
 Alpha virt. eigenvalues --   -0.03733  -0.00111   0.00528   0.05880   0.10876
 Alpha virt. eigenvalues --    0.11846   0.14897   0.19279   0.22083   0.25859
 Alpha virt. eigenvalues --    0.27485   0.31108   0.33059   0.34000   0.35494

 Mulliken charges:
               1
     1  C   -0.084528
     2  N   -0.106742
     3  N   -0.070710
     4  N   -0.077754
     5  N   -0.070834
     6  H    0.143143
     7  H    0.267425
 Sum of Mulliken charges =   0.00000

 Dipole moment (field-independent basis, Debye):
    X=              2.5633    Y=              4.8712    Z=              0.0000  Tot=              5.5045
 Quadrupole moment (field-independent basis, Debye-Ang):
   XX=            -29.4374   YY=            -26.9235   ZZ=            -28.6073
   XY=              1.8941   XZ=              0.0000   YZ=              0.0000

  Exact polarizability:  41.855   0.744  41.490   0.000   0.000  22.041
 Approx polarizability:  69.159   0.298  73.732   0.000   0.000  32.342

                      1                      2                      3
                     A"                     A"                     A"
 Frequencies --    572.4026               690.7305               733.6082
 Red. masses --      1.9810                 1.8549                 7.6728
 Frc consts  --      0.3824                 0.5214                 2.4329
 IR Inten    --     74.5351                13.6841                 9.2777

                      4                      5                      6
                     A"                     A'                     A'
 Frequencies --    848.1156               952.8171              1010.8870
 Red. masses --      1.3252                 6.3388                 5.5887
 Frc consts  --      0.5616                 3.3906                 3.3649
 IR Inten    --     23.9348                 6.5679                 1.1324

                      7                      8                      9
                     A'                     A'                     A'
 Frequencies --   1016.3235              1060.4645              1144.6615
 Red. masses --      5.9934                 3.2382                 2.0448
 Frc consts  --      3.6475                 2.1456                 1.5785
 IR Inten    --     17.0590                26.2976                18.4662

                     10                     11                     12
                     A'                     A'                     A'
 Frequencies --   1264.7571              1287.3542              1448.3587
 Red. masses --      2.1694                10.9141                 3.0045
 Frc consts  --      2.0446                10.6570                 3.7134
 IR Inten    --      4.4691                15.5302                 9.2435

                     13                     14                     15
                     A'                     A'                     A'
 Frequencies --   1507.7838              3283.6340              3645.5616
 Red. masses --      3.0606                 1.1007                 1.0837
 Frc consts  --      4.0995                 6.9927                 8.4857
 IR Inten    --     17.9726                 2.0676                97.1924

 - Thermochemistry -
 -------------------
 Temperature   298.150 Kelvin.  Pressure   1.00000 Atm.
 Atom     1 has atomic number  6 and mass  12.00000

 Molecular mass:    70.02795 amu.
 Principal axes and moments of inertia in atomic units:
                           1         2         3
     Eigenvalues --   171.04368 174.06279 345.10647
           X            0.92924   0.36948   0.00000
           Y           -0.36948   0.92924   0.00000
           Z            0.00000   0.00000   1.00000
 This molecule is an asymmetric top.
 Rotational symmetry number  1.
 Rotational temperatures (Kelvin)      0.50638     0.49760     0.25098
 Rotational constants (GHZ):          10.55135    10.36833     5.22952
 Zero-point vibrational energy     122422.6 (Joules/Mol)
                                   29.25970 (Kcal/Mol)
 Warning -- explicit consideration of   1 degrees of freedom as
           vibrations may cause significant error
 Vibrational temperatures:    823.56   993.81  1055.50  1220.25  1370.89
          (Kelvin)           1454.44  1462.26  1525.77  1646.91  1819.70
                             1852.21  2083.86  2169.36  4724.41  5245.14

 Zero-point correction=                           0.046628 (Hartree/Particle)
 Thermal correction to Energy=                    0.050118
 Thermal correction to Enthalpy=                  0.051062
 Thermal correction to Gibbs Free Energy=         0.020530
 Sum of electronic and zero-point Energies=           -258.289921
 Sum of electronic and thermal Energies=              -258.286431
 Sum of electronic and thermal Enthalpies=            -258.285486
 Sum of electronic and thermal Free Energies=         -258.316018

                     E (Thermal)             CV                S
                      KCal/Mol        Cal/Mol-Kelvin    Cal/Mol-Kelvin
 Total                   31.450             11.440             64.260
 Electronic               0.000              0.000              0.000
 Translational            0.889              2.981             38.656
 Rotational               0.889              2.981             23.845
 Vibrational             29.672              5.479              1.759
 Vibration     1          0.929              1.091              0.500

 Optimization completed.
    -- Stationary point found.
 Normal termination of Gaussian 09 at Mon Dec 16 15:03:11 2013.
