 Gaussian 09, Revision D.01,
 Gaussian 09:  EM64L-G09RevD.01 24-Apr-2013

 ---------------------------------------------------------
 #B3LYP/cc-pVTZ integral(grid=ultrafine) opt=z-matrix freq
 ---------------------------------------------------------

 ------------------------------------------------------------------
 1H-tetrazole CH2N4 casno=288948 state=1 config=1 method=68 basis=6
 ------------------------------------------------------------------
 Symbolic Z-matrix:
 Charge =  0 Multiplicity = 1

 SCF Done:  E(RB3LYP) =  -258.342688819     A.U. after   14 cycles
 SCF Done:  E(RB3LYP) =  -258.345444980     A.U. after   11 cycles
 SCF Done:  E(RB3LYP) =  -258.345506642     A.U. after   10 cycles
 SCF Done:  E(RB3LYP) =  -258.345401067     A.U. after   10 cycles
 SCF Done:  E(RB3LYP) =  -258.345514622     A.U. after    7 cycles
 SCF Done:  E(RB3LYP) =  -258.345514719     A.U. after    9 cycles
 SCF Done:  E(RB3LYP) =  -258.345478671     A.U. after    9 cycles
 SCF Done:  E(RB3LYP) =  -258.345520013     A.U. after    6 cycles
 SCF Done:  E(RB3LYP) =  -258.345520673     A.U. after    6 cycles
 SCF Done:  E(RB3LYP) =  -258.345481431     A.U. after   10 cycles
 SCF Done:  E(RB3LYP) =  -258.345520762     A.U. after    6 cycles
 Optimization completed.
    -- Stationary point found.
 Normal termination of Gaussian 09 at Wed Dec  4 11:22:05 2013.

 -------------------------------------------------------------------
 #N Geom=AllCheck Guess=TCheck SCRF=Check GenChk RB3LYP/CC-pVTZ Freq
 -------------------------------------------------------------------

 Structure from the checkpoint file:  "/tmp/rdj3/g09-16643/Gau-28007.chk"
 ------------------------------------------------------------------
 1H-tetrazole CH2N4 casno=288948 state=1 config=1 method=68 basis=6
 ------------------------------------------------------------------
 Charge =  0 Multiplicity = 1

                         Standard orientation:
 ---------------------------------------------------------------------
 Center     Atomic      Atomic             Coordinates (Angstroms)
 Number     Number       Type             X           Y           Z
 ---------------------------------------------------------------------
      1          6           0        1.064796    0.234699    0.000000
      2          7           0        0.000000    1.052536    0.000000
      3          7           0       -1.117438    0.298659    0.000000
      4          7           0       -0.722791   -0.923127    0.000000
      5          7           0        0.637619   -1.003112    0.000000
      6          1           0        2.089643    0.560135    0.000000
      7          1           0       -0.060147    2.056981    0.000000
 ---------------------------------------------------------------------

 SCF Done:  E(RB3LYP) =  -258.345520762     A.U. after    1 cycles

 The electronic state is 1-A'.
 Alpha  occ. eigenvalues --  -14.43491 -14.40160 -14.38468 -14.35457 -10.27024
 Alpha  occ. eigenvalues --   -1.15274  -0.95476  -0.90361  -0.68772  -0.67428
 Alpha  occ. eigenvalues --   -0.60588  -0.50801  -0.50746  -0.38989  -0.34152
 Alpha  occ. eigenvalues --   -0.32023  -0.31312  -0.30088
 Alpha virt. eigenvalues --   -0.03102   0.00422   0.01027   0.05542   0.13923
 Alpha virt. eigenvalues --    0.15801   0.16521   0.23827   0.26797   0.28388
 Alpha virt. eigenvalues --    0.35479   0.36106   0.38659   0.40810   0.41850

 Mulliken charges:
               1
     1  C   -0.014243
     2  N   -0.006541
     3  N   -0.075577
     4  N   -0.073687
     5  N   -0.148834
     6  H    0.138912
     7  H    0.179970
 Sum of Mulliken charges =   0.00000

 Dipole moment (field-independent basis, Debye):
    X=              2.4358    Y=              4.6866    Z=              0.0000  Tot=              5.2818
 Quadrupole moment (field-independent basis, Debye-Ang):
   XX=            -28.9928   YY=            -26.4620   ZZ=            -28.3277
   XY=              1.8287   XZ=              0.0000   YZ=              0.0000

  Exact polarizability:  41.417   0.861  40.801   0.000   0.000  20.805
 Approx polarizability:  70.540   0.608  74.369   0.000   0.000  32.498

                      1                      2                      3
                     A"                     A"                     A"
 Frequencies --    582.0753               693.2182               744.6616
 Red. masses --      1.6256                 2.0900                 8.6702
 Frc consts  --      0.3245                 0.5917                 2.8327
 IR Inten    --     80.6919                 4.9793                 7.7785

                      4                      5                      6
                     A"                     A'                     A'
 Frequencies --    871.6988               961.7731              1011.7288
 Red. masses --      1.3892                 5.7424                 5.5242
 Frc consts  --      0.6219                 3.1296                 3.3315
 IR Inten    --     17.2020                 5.4963                 0.4379

                      7                      8                      9
                     A'                     A'                     A'
 Frequencies --   1027.0070              1061.0945              1144.7731
 Red. masses --      5.7496                 3.1380                 2.0733
 Frc consts  --      3.5730                 2.0817                 1.6008
 IR Inten    --     15.6782                26.3189                18.0479

                     10                     11                     12
                     A'                     A'                     A'
 Frequencies --   1263.8908              1292.1307              1451.9730
 Red. masses --      2.2194                10.9519                 3.0404
 Frc consts  --      2.0889                10.7734                 3.7766
 IR Inten    --      3.1835                12.8273                 8.3859

                     13                     14                     15
                     A'                     A'                     A'
 Frequencies --   1507.5038              3276.0667              3647.5594
 Red. masses --      3.2005                 1.1006                 1.0836
 Frc consts  --      4.2853                 6.9595                 8.4940
 IR Inten    --     16.3726                 1.1033                87.5710

 - Thermochemistry -
 -------------------
 Temperature   298.150 Kelvin.  Pressure   1.00000 Atm.
 Atom     1 has atomic number  6 and mass  12.00000

 Molecular mass:    70.02795 amu.
 Principal axes and moments of inertia in atomic units:
                           1         2         3
     Eigenvalues --   170.65010 173.51490 344.16500
           X            0.90614   0.42298   0.00000
           Y           -0.42298   0.90614   0.00000
           Z            0.00000   0.00000   1.00000
 This molecule is an asymmetric top.
 Rotational symmetry number  1.
 Rotational temperatures (Kelvin)      0.50755     0.49917     0.25166
 Rotational constants (GHZ):          10.57568    10.40107     5.24383
 Zero-point vibrational energy     122839.5 (Joules/Mol)
                                   29.35934 (Kcal/Mol)
 Warning -- explicit consideration of   1 degrees of freedom as
           vibrations may cause significant error
 Vibrational temperatures:    837.48   997.39  1071.40  1254.18  1383.78
          (Kelvin)           1455.65  1477.63  1526.68  1647.07  1818.45
                             1859.09  2089.06  2168.96  4713.52  5248.02

 Zero-point correction=                           0.046787 (Hartree/Particle)
 Thermal correction to Energy=                    0.050257
 Thermal correction to Enthalpy=                  0.051202
 Thermal correction to Gibbs Free Energy=         0.020700
 Sum of electronic and zero-point Energies=           -258.298734
 Sum of electronic and thermal Energies=              -258.295263
 Sum of electronic and thermal Enthalpies=            -258.294319
 Sum of electronic and thermal Free Energies=         -258.324820

                     E (Thermal)             CV                S
                      KCal/Mol        Cal/Mol-Kelvin    Cal/Mol-Kelvin
 Total                   31.537             11.333             64.195
 Electronic               0.000              0.000              0.000
 Translational            0.889              2.981             38.656
 Rotational               0.889              2.981             23.837
 Vibrational             29.760              5.372              1.702
 Vibration     1          0.939              1.070              0.482

 Normal termination of Gaussian 09 at Wed Dec  4 11:23:52 2013.
