 Gaussian 09, Revision D.01,
 Gaussian 09:  EM64L-G09RevD.01 24-Apr-2013

 -------------------------------------------------------------
 #B3LYP/aug-cc-pVTZ integral(grid=ultrafine) opt=z-matrix freq
 -------------------------------------------------------------

 -------------------------------------------------------------------
 1H-tetrazole CH2N4 casno=288948 state=1 config=1 method=68 basis=18
 -------------------------------------------------------------------
 Symbolic Z-matrix:
 Charge =  0 Multiplicity = 1

 SCF Done:  E(RB3LYP) =  -258.347701707     A.U. after   12 cycles
 SCF Done:  E(RB3LYP) =  -258.350438450     A.U. after   10 cycles
 SCF Done:  E(RB3LYP) =  -258.350501662     A.U. after    9 cycles
 SCF Done:  E(RB3LYP) =  -258.350195740     A.U. after   10 cycles
 SCF Done:  E(RB3LYP) =  -258.350511342     A.U. after    8 cycles
 SCF Done:  E(RB3LYP) =  -258.350513455     A.U. after    8 cycles
 SCF Done:  E(RB3LYP) =  -258.350470279     A.U. after    8 cycles
 SCF Done:  E(RB3LYP) =  -258.350519306     A.U. after    7 cycles
 SCF Done:  E(RB3LYP) =  -258.350520429     A.U. after    7 cycles
 SCF Done:  E(RB3LYP) =  -258.350498393     A.U. after    9 cycles
 SCF Done:  E(RB3LYP) =  -258.350520580     A.U. after    7 cycles
 SCF Done:  E(RB3LYP) =  -258.350494949     A.U. after    9 cycles
 SCF Done:  E(RB3LYP) =  -258.339713992     A.U. after   11 cycles
 SCF Done:  E(RB3LYP) =  -258.349875746     A.U. after   11 cycles
 SCF Done:  E(RB3LYP) =  -258.346889854     A.U. after   11 cycles
 SCF Done:  E(RB3LYP) =  -258.347810937     A.U. after   11 cycles
 SCF Done:  E(RB3LYP) =  -258.350520584     A.U. after    3 cycles
 SCF Done:  E(RB3LYP) =  -258.350403445     A.U. after    9 cycles
 SCF Done:  E(RB3LYP) =  -258.350520584     A.U. after    2 cycles
 Optimization completed.
    -- Stationary point found.
 Normal termination of Gaussian 09 at Wed Dec  4 11:04:17 2013.

 ----------------------------------------------------------------------
 #N Geom=AllCheck Guess=TCheck SCRF=Check GenChk RB3LYP/Aug-CC-pVTZ Fre
 q
 ----------------------------------------------------------------------

 Structure from the checkpoint file:  "/tmp/rdj3/g09-16643/Gau-17979.chk"
 -------------------------------------------------------------------
 1H-tetrazole CH2N4 casno=288948 state=1 config=1 method=68 basis=18
 -------------------------------------------------------------------
 Charge =  0 Multiplicity = 1

                         Standard orientation:
 ---------------------------------------------------------------------
 Center     Atomic      Atomic             Coordinates (Angstroms)
 Number     Number       Type             X           Y           Z
 ---------------------------------------------------------------------
      1          6           0        1.064925    0.235173    0.000000
      2          7           0        0.000000    1.052219    0.000000
      3          7           0       -1.117237    0.298707    0.000000
      4          7           0       -0.722663   -0.923587    0.000000
      5          7           0        0.637221   -1.002783    0.000000
      6          1           0        2.089806    0.560387    0.000000
      7          1           0       -0.060602    2.056684    0.000000
 ---------------------------------------------------------------------

 SCF Done:  E(RB3LYP) =  -258.350520584     A.U. after    1 cycles

 The electronic state is 1-A'.
 Alpha  occ. eigenvalues --  -14.43968 -14.40774 -14.39134 -14.36042 -10.27446
 Alpha  occ. eigenvalues --   -1.15791  -0.95969  -0.90846  -0.69232  -0.67912
 Alpha  occ. eigenvalues --   -0.61017  -0.51238  -0.51209  -0.39512  -0.34648
 Alpha  occ. eigenvalues --   -0.32484  -0.31877  -0.30648
 Alpha virt. eigenvalues --   -0.03809  -0.03031  -0.00612   0.00162   0.02795
 Alpha virt. eigenvalues --    0.03270   0.04869   0.05700   0.06499   0.07378
 Alpha virt. eigenvalues --    0.08117   0.08653   0.10055   0.11568   0.12489

 Mulliken charges:
               1
     1  C   -0.181826
     2  N    0.239057
     3  N   -0.282509
     4  N   -0.168642
     5  N   -0.238899
     6  H    0.518164
     7  H    0.114656
 Sum of Mulliken charges =   0.00000

 Dipole moment (field-independent basis, Debye):
    X=              2.5011    Y=              4.7255    Z=              0.0000  Tot=              5.3466
 Quadrupole moment (field-independent basis, Debye-Ang):
   XX=            -29.3727   YY=            -26.8915   ZZ=            -28.7438
   XY=              1.8904   XZ=              0.0000   YZ=              0.0000

  Exact polarizability:  45.959   0.521  45.549   0.000   0.000  26.635
 Approx polarizability:  75.023   0.437  78.921   0.000   0.000  39.564

                      1                      2                      3
                     A"                     A"                     A"
 Frequencies --    591.1444               692.7706               743.7713
 Red. masses --      1.6450                 2.0504                 8.7421
 Frc consts  --      0.3387                 0.5798                 2.8494
 IR Inten    --     81.5301                 5.8887                 7.3255

                      4                      5                      6
                     A"                     A'                     A'
 Frequencies --    873.3711               960.4517              1011.3573
 Red. masses --      1.3912                 5.7634                 6.1753
 Frc consts  --      0.6252                 3.1324                 3.7215
 IR Inten    --     16.0118                 5.5959                 0.0273

                      7                      8                      9
                     A'                     A'                     A'
 Frequencies --   1026.5685              1060.4540              1143.1422
 Red. masses --      5.3020                 3.1726                 2.0447
 Frc consts  --      3.2920                 2.1021                 1.5743
 IR Inten    --     15.3249                26.1563                17.1273

                     10                     11                     12
                     A'                     A'                     A'
 Frequencies --   1262.8695              1288.3516              1450.4413
 Red. masses --      2.2206                11.0654                 3.0530
 Frc consts  --      2.0866                10.8215                 3.7842
 IR Inten    --      3.3325                11.9270                 9.2656

                     13                     14                     15
                     A'                     A'                     A'
 Frequencies --   1504.8193              3276.3825              3643.2966
 Red. masses --      3.1556                 1.1007                 1.0836
 Frc consts  --      4.2102                 6.9616                 8.4747
 IR Inten    --     17.0971                 1.6651                91.2971

 - Thermochemistry -
 -------------------
 Temperature   298.150 Kelvin.  Pressure   1.00000 Atm.
 Atom     1 has atomic number  6 and mass  12.00000

 Molecular mass:    70.02795 amu.
 Principal axes and moments of inertia in atomic units:
                           1         2         3
     Eigenvalues --   170.67743 173.42886 344.10628
           X            0.91079   0.41287   0.00000
           Y           -0.41287   0.91079   0.00000
           Z            0.00000   0.00000   1.00000
 This molecule is an asymmetric top.
 Rotational symmetry number  1.
 Rotational temperatures (Kelvin)      0.50747     0.49942     0.25171
 Rotational constants (GHZ):          10.57399    10.40623     5.24472
 Zero-point vibrational energy     122791.8 (Joules/Mol)
                                   29.34795 (Kcal/Mol)
 Warning -- explicit consideration of   1 degrees of freedom as
           vibrations may cause significant error
 Vibrational temperatures:    850.52   996.74  1070.12  1256.58  1381.87
          (Kelvin)           1455.12  1477.00  1525.75  1644.72  1816.99
                             1853.65  2086.86  2165.10  4713.98  5241.88

 Zero-point correction=                           0.046769 (Hartree/Particle)
 Thermal correction to Energy=                    0.050235
 Thermal correction to Enthalpy=                  0.051179
 Thermal correction to Gibbs Free Energy=         0.020685
 Sum of electronic and zero-point Energies=           -258.303752
 Sum of electronic and thermal Energies=              -258.300285
 Sum of electronic and thermal Enthalpies=            -258.299341
 Sum of electronic and thermal Free Energies=         -258.329836

                     E (Thermal)             CV                S
                      KCal/Mol        Cal/Mol-Kelvin    Cal/Mol-Kelvin
 Total                   31.523             11.322             64.181
 Electronic               0.000              0.000              0.000
 Translational            0.889              2.981             38.656
 Rotational               0.889              2.981             23.836
 Vibrational             29.746              5.360              1.689
 Vibration     1          0.949              1.051              0.465

 Normal termination of Gaussian 09 at Wed Dec  4 11:12:52 2013.
