 Gaussian 09, Revision D.01,
 Gaussian 09:  EM64L-G09RevD.01 24-Apr-2013

 --------------------------------------------------------
 #B3LYP/6-31G* integral(grid=ultrafine) opt=z-matrix freq
 --------------------------------------------------------

 ------------------------------------------------------------------
 1H-tetrazole CH2N4 casno=288948 state=1 config=1 method=68 basis=1
 ------------------------------------------------------------------
 Symbolic Z-matrix:
 Charge =  0 Multiplicity = 1

 SCF Done:  E(RB3LYP) =  -258.246266216     A.U. after   14 cycles
 SCF Done:  E(RB3LYP) =  -258.250811779     A.U. after   13 cycles
 SCF Done:  E(RB3LYP) =  -258.250890170     A.U. after   11 cycles
 SCF Done:  E(RB3LYP) =  -258.250898279     A.U. after   10 cycles
 SCF Done:  E(RB3LYP) =  -258.250896748     A.U. after    9 cycles
 SCF Done:  E(RB3LYP) =  -258.250902402     A.U. after    5 cycles
 SCF Done:  E(RB3LYP) =  -258.250797135     A.U. after   10 cycles
 SCF Done:  E(RB3LYP) =  -258.250902394     A.U. after    7 cycles
 SCF Done:  E(RB3LYP) =  -258.250903189     A.U. after    8 cycles
 SCF Done:  E(RB3LYP) =  -258.250585665     A.U. after   11 cycles
 SCF Done:  E(RB3LYP) =  -258.250903349     A.U. after    6 cycles
 Optimization completed.
    -- Stationary point found.
 Normal termination of Gaussian 09 at Wed Dec  4 11:13:23 2013.

 --------------------------------------------------------------------
 #N Geom=AllCheck Guess=TCheck SCRF=Check GenChk RB3LYP/6-31G(d) Freq
 --------------------------------------------------------------------

 Structure from the checkpoint file:  "/tmp/rdj3/g09-16643/Gau-19871.chk"
 ------------------------------------------------------------------
 1H-tetrazole CH2N4 casno=288948 state=1 config=1 method=68 basis=1
 ------------------------------------------------------------------
 Charge =  0 Multiplicity = 1

                         Standard orientation:
 ---------------------------------------------------------------------
 Center     Atomic      Atomic             Coordinates (Angstroms)
 Number     Number       Type             X           Y           Z
 ---------------------------------------------------------------------
      1          6           0        1.069220    0.235799    0.000000
      2          7           0        0.000000    1.056016    0.000000
      3          7           0       -1.123375    0.301274    0.000000
      4          7           0       -0.723741   -0.927246    0.000000
      5          7           0        0.640031   -1.007656    0.000000
      6          1           0        2.097806    0.563649    0.000000
      7          1           0       -0.063539    2.064848    0.000000
 ---------------------------------------------------------------------

 SCF Done:  E(RB3LYP) =  -258.250903349     A.U. after    1 cycles

 The electronic state is 1-A'.
 Alpha  occ. eigenvalues --  -14.45155 -14.41536 -14.39744 -14.36775 -10.28326
 Alpha  occ. eigenvalues --   -1.14499  -0.94938  -0.89746  -0.68353  -0.66761
 Alpha  occ. eigenvalues --   -0.60020  -0.50316  -0.49806  -0.38216  -0.33367
 Alpha  occ. eigenvalues --   -0.31244  -0.30649  -0.29315
 Alpha virt. eigenvalues --   -0.02322   0.01444   0.05213   0.10449   0.17878
 Alpha virt. eigenvalues --    0.19873   0.27867   0.32050   0.40624   0.51340
 Alpha virt. eigenvalues --    0.51690   0.59180   0.60146   0.63928   0.66176

 Mulliken charges:
               1
     1  C    0.267216
     2  N   -0.410422
     3  N   -0.042171
     4  N   -0.082179
     5  N   -0.299150
     6  H    0.200436
     7  H    0.366270
 Sum of Mulliken charges =   0.00000

 Dipole moment (field-independent basis, Debye):
    X=              2.4744    Y=              4.7283    Z=              0.0000  Tot=              5.3366
 Quadrupole moment (field-independent basis, Debye-Ang):
   XX=            -28.5808   YY=            -26.0135   ZZ=            -28.1318
   XY=              1.7751   XZ=              0.0000   YZ=              0.0000

  Exact polarizability:  37.542   0.997  37.127   0.000   0.000  15.529
 Approx polarizability:  66.103   0.271  70.390   0.000   0.000  23.966

                      1                      2                      3
                     A"                     A"                     A"
 Frequencies --    565.8876               690.6915               737.2243
 Red. masses --      1.7218                 2.0479                 8.4827
 Frc consts  --      0.3249                 0.5756                 2.7163
 IR Inten    --     91.6510                 8.3077                 7.8934

                      4                      5                      6
                     A"                     A'                     A'
 Frequencies --    848.1731               969.9659              1011.0814
 Red. masses --      1.3480                 5.0444                 6.2623
 Frc consts  --      0.5714                 2.7962                 3.7719
 IR Inten    --     17.0561                 4.2544                 0.1983

                      7                      8                      9
                     A'                     A'                     A'
 Frequencies --   1045.9821              1070.2490              1151.5576
 Red. masses --      4.9162                 3.6778                 1.9014
 Frc consts  --      3.1690                 2.4820                 1.4856
 IR Inten    --     16.9666                28.2510                15.5889

                     10                     11                     12
                     A'                     A'                     A'
 Frequencies --   1272.4583              1299.9227              1466.2463
 Red. masses --      2.2973                10.9377                 3.1634
 Frc consts  --      2.1916                10.8896                 4.0070
 IR Inten    --      2.9418                16.0242                 9.1629

                     13                     14                     15
                     A'                     A'                     A'
 Frequencies --   1517.1953              3308.8973              3652.4607
 Red. masses --      3.2152                 1.1002                 1.0836
 Frc consts  --      4.3605                 7.0972                 8.5167
 IR Inten    --     18.4220                 0.6972                79.4341

 - Thermochemistry -
 -------------------
 Temperature   298.150 Kelvin.  Pressure   1.00000 Atm.
 Atom     1 has atomic number  6 and mass  12.00000

 Molecular mass:    70.02795 amu.
 Principal axes and moments of inertia in atomic units:
                           1         2         3
     Eigenvalues --   171.92154 175.09329 347.01484
           X            0.88730   0.46120   0.00000
           Y           -0.46120   0.88730   0.00000
           Z            0.00000   0.00000   1.00000
 This molecule is an asymmetric top.
 Rotational symmetry number  1.
 Rotational temperatures (Kelvin)      0.50380     0.49467     0.24960
 Rotational constants (GHZ):          10.49747    10.30731     5.20076
 Zero-point vibrational energy     123263.2 (Joules/Mol)
                                   29.46060 (Kcal/Mol)
 Warning -- explicit consideration of   1 degrees of freedom as
           vibrations may cause significant error
 Vibrational temperatures:    814.19   993.75  1060.70  1220.33  1395.56
          (Kelvin)           1454.72  1504.93  1539.85  1656.83  1830.78
                             1870.30  2109.60  2182.90  4760.76  5255.07

 Zero-point correction=                           0.046948 (Hartree/Particle)
 Thermal correction to Energy=                    0.050431
 Thermal correction to Enthalpy=                  0.051375
 Thermal correction to Gibbs Free Energy=         0.020844
 Sum of electronic and zero-point Energies=           -258.203955
 Sum of electronic and thermal Energies=              -258.200472
 Sum of electronic and thermal Enthalpies=            -258.199528
 Sum of electronic and thermal Free Energies=         -258.230060

                     E (Thermal)             CV                S
                      KCal/Mol        Cal/Mol-Kelvin    Cal/Mol-Kelvin
 Total                   31.646             11.364             64.259
 Electronic               0.000              0.000              0.000
 Translational            0.889              2.981             38.656
 Rotational               0.889              2.981             23.861
 Vibrational             29.869              5.403              1.742
 Vibration     1          0.922              1.105              0.512

 Normal termination of Gaussian 09 at Wed Dec  4 11:13:37 2013.
