 Gaussian 09, Revision D.01,
 Gaussian 09:  EM64L-G09RevD.01 24-Apr-2013

 -----------------------------------------------------------
 #PBEPBE/6-31+G** integral(grid=ultrafine) opt=z-matrix freq
 -----------------------------------------------------------

 ------------------------------------------------------------------
 1H-tetrazole CH2N4 casno=288948 state=1 config=1 method=69 basis=4
 ------------------------------------------------------------------
 Symbolic Z-matrix:
 Charge =  0 Multiplicity = 1

 SCF Done:  E(RPBE-PBE) =  -257.989047129     A.U. after   12 cycles
 SCF Done:  E(RPBE-PBE) =  -257.996707191     A.U. after   12 cycles
 SCF Done:  E(RPBE-PBE) =  -257.996895200     A.U. after   11 cycles
 SCF Done:  E(RPBE-PBE) =  -257.996924915     A.U. after   10 cycles
 SCF Done:  E(RPBE-PBE) =  -257.996938873     A.U. after   10 cycles
 SCF Done:  E(RPBE-PBE) =  -257.995850836     A.U. after   11 cycles
 SCF Done:  E(RPBE-PBE) =  -257.996938929     A.U. after    9 cycles
 SCF Done:  E(RPBE-PBE) =  -257.996939806     A.U. after    9 cycles
 SCF Done:  E(RPBE-PBE) =  -257.996378254     A.U. after   11 cycles
 SCF Done:  E(RPBE-PBE) =  -257.996939838     A.U. after    8 cycles
 SCF Done:  E(RPBE-PBE) =  -257.996437589     A.U. after   11 cycles
 SCF Done:  E(RPBE-PBE) =  -257.996939863     A.U. after    9 cycles
 SCF Done:  E(RPBE-PBE) =  -257.996939896     A.U. after    8 cycles
 SCF Done:  E(RPBE-PBE) =  -257.996939914     A.U. after    8 cycles
 Optimization completed.
    -- Stationary point found.
 Normal termination of Gaussian 09 at Wed Dec  4 11:57:33 2013.

 ----------------------------------------------------------------------
 #P Geom=AllCheck Guess=TCheck SCRF=Check GenChk RPBEPBE/6-31+G(d,p) Fr
 eq
 ----------------------------------------------------------------------

 Structure from the checkpoint file:  "/tmp/rdj3/g09-16643/Gau-6863.chk"
 ------------------------------------------------------------------
 1H-tetrazole CH2N4 casno=288948 state=1 config=1 method=69 basis=4
 ------------------------------------------------------------------
 Charge =  0 Multiplicity = 1

                         Standard orientation:
 ---------------------------------------------------------------------
 Center     Atomic      Atomic             Coordinates (Angstroms)
 Number     Number       Type             X           Y           Z
 ---------------------------------------------------------------------
      1          6           0        1.075674    0.239169    0.000000
      2          7           0        0.000000    1.061894    0.000000
      3          7           0       -1.131121    0.305446    0.000000
      4          7           0       -0.726143   -0.934800    0.000000
      5          7           0        0.642288   -1.015586    0.000000
      6          1           0        2.112051    0.567851    0.000000
      7          1           0       -0.061266    2.078461    0.000000
 ---------------------------------------------------------------------

 SCF Done:  E(RPBE-PBE) =  -257.996939914     A.U. after    1 cycles

 The electronic state is 1-A'.
 Alpha  occ. eigenvalues --  -14.13067 -14.09251 -14.07582 -14.05057 -10.00107
 Alpha  occ. eigenvalues --   -1.06184  -0.87819  -0.82664  -0.62974  -0.61589
 Alpha  occ. eigenvalues --   -0.54974  -0.45933  -0.45535  -0.34045  -0.30825
 Alpha  occ. eigenvalues --   -0.28854  -0.27205  -0.25694
 Alpha virt. eigenvalues --   -0.07197  -0.03997  -0.03126   0.00706   0.02990
 Alpha virt. eigenvalues --    0.04059   0.05555   0.06987   0.09029   0.11390
 Alpha virt. eigenvalues --    0.11837   0.12718   0.14442   0.15646   0.16130

 Mulliken charges:
               1
     1  C   -0.010187
     2  N   -0.258558
     3  N   -0.016717
     4  N   -0.023201
     5  N   -0.218036
     6  H    0.190640
     7  H    0.336060
 Sum of Mulliken charges =   0.00000

 Dipole moment (field-independent basis, Debye):
    X=              2.5656    Y=              4.8161    Z=              0.0000  Tot=              5.4568
 Quadrupole moment (field-independent basis, Debye-Ang):
   XX=            -29.6066   YY=            -26.9507   ZZ=            -29.0260
   XY=              1.9019   XZ=              0.0000   YZ=              0.0000

  Exact polarizability:  46.382   0.450  46.003   0.000   0.000  24.852
 Approx polarizability:  91.772  -0.278  97.424   0.000   0.000  40.450

                      1                      2                      3
                     A"                     A"                     A"
 Frequencies --    558.6799               667.0128               710.1945
 Red. masses --      1.8492                 1.9263                 8.2971
 Frc consts  --      0.3401                 0.5049                 2.4656
 IR Inten    --     77.1713                10.1608                 7.4720

                      4                      5                      6
                     A"                     A'                     A'
 Frequencies --    802.7841               931.0998               972.2582
 Red. masses --      1.3364                 4.5694                 5.4160
 Frc consts  --      0.5074                 2.3340                 3.0164
 IR Inten    --     27.7170                 4.4756                 2.2087

                      7                      8                      9
                     A'                     A'                     A'
 Frequencies --   1011.2873              1029.6570              1112.4047
 Red. masses --      5.3715                 4.0098                 1.8345
 Frc consts  --      3.2366                 2.5047                 1.3375
 IR Inten    --     13.7342                27.4225                13.7127

                     10                     11                     12
                     A'                     A'                     A'
 Frequencies --   1214.9068              1235.2217              1410.6570
 Red. masses --      2.4445                 8.4978                 3.3037
 Frc consts  --      2.1258                 7.6392                 3.8734
 IR Inten    --      9.3877                 6.6095                 8.3974

                     13                     14                     15
                     A'                     A'                     A'
 Frequencies --   1449.6742              3231.3791              3568.4989
 Red. masses --      3.3442                 1.0998                 1.0835
 Frc consts  --      4.1408                 6.7664                 8.1290
 IR Inten    --     14.3139                 1.9558                73.5620

 - Thermochemistry -
 -------------------
 Temperature   298.150 Kelvin.  Pressure   1.00000 Atm.
 Atom     1 has atomic number  6 and mass  12.00000

 Molecular mass:    70.02795 amu.
 Principal axes and moments of inertia in atomic units:
                           1         2         3
     Eigenvalues --   174.28828 177.26225 351.55053
           X            0.84575   0.53359   0.00000
           Y           -0.53359   0.84575   0.00000
           Z            0.00000   0.00000   1.00000
 This molecule is an asymmetric top.
 Rotational symmetry number  1.
 Rotational temperatures (Kelvin)      0.49696     0.48862     0.24638
 Rotational constants (GHZ):          10.35492    10.18119     5.13366
 Zero-point vibrational energy     119062.6 (Joules/Mol)
                                   28.45665 (Kcal/Mol)
 Warning -- explicit consideration of   1 degrees of freedom as
           vibrations may cause significant error
 Vibrational temperatures:    803.81   959.68  1021.81  1155.03  1339.64
          (Kelvin)           1398.86  1455.02  1481.44  1600.50  1747.98
                             1777.21  2029.62  2085.76  4649.23  5134.27

 Zero-point correction=                           0.045349 (Hartree/Particle)
 Thermal correction to Energy=                    0.048903
 Thermal correction to Enthalpy=                  0.049847
 Thermal correction to Gibbs Free Energy=         0.019203
 Sum of electronic and zero-point Energies=           -257.951591
 Sum of electronic and thermal Energies=              -257.948037
 Sum of electronic and thermal Enthalpies=            -257.947093
 Sum of electronic and thermal Free Energies=         -257.977737

                     E (Thermal)             CV                S
                      KCal/Mol        Cal/Mol-Kelvin    Cal/Mol-Kelvin
 Total                   30.687             11.850             64.495
 Electronic               0.000              0.000              0.000
 Translational            0.889              2.981             38.656
 Rotational               0.889              2.981             23.900
 Vibrational             28.909              5.888              1.939
 Vibration     1          0.914              1.121              0.526

 Normal termination of Gaussian 09 at Wed Dec  4 11:57:55 2013.
