 Gaussian 09, Revision D.01,
 Gaussian 09:  EM64L-G09RevD.01 24-Apr-2013

 -------------------------------------------------------
 #PBEPBE/TZVP integral(grid=ultrafine) opt=z-matrix freq
 -------------------------------------------------------

 -------------------------------------------------------------------
 1H-tetrazole CH2N4 casno=288948 state=1 config=1 method=69 basis=32
 -------------------------------------------------------------------
 Symbolic Z-matrix:
 Charge =  0 Multiplicity = 1

 SCF Done:  E(RPBE-PBE) =  -258.056536504     A.U. after   15 cycles
 SCF Done:  E(RPBE-PBE) =  -258.062567666     A.U. after   13 cycles
 SCF Done:  E(RPBE-PBE) =  -258.062733302     A.U. after   12 cycles
 SCF Done:  E(RPBE-PBE) =  -258.062760429     A.U. after   11 cycles
 SCF Done:  E(RPBE-PBE) =  -258.062774949     A.U. after   11 cycles
 SCF Done:  E(RPBE-PBE) =  -258.061966923     A.U. after   13 cycles
 SCF Done:  E(RPBE-PBE) =  -258.062774920     A.U. after    9 cycles
 SCF Done:  E(RPBE-PBE) =  -258.062775940     A.U. after    8 cycles
 SCF Done:  E(RPBE-PBE) =  -258.061938220     A.U. after   13 cycles
 SCF Done:  E(RPBE-PBE) =  -258.062776013     A.U. after    9 cycles
 SCF Done:  E(RPBE-PBE) =  -258.062776087     A.U. after    7 cycles
 SCF Done:  E(RPBE-PBE) =  -258.060649825     A.U. after   13 cycles
 SCF Done:  E(RPBE-PBE) =  -258.062776137     A.U. after    8 cycles
 Optimization completed.
    -- Stationary point found.
 Normal termination of Gaussian 09 at Wed Dec  4 11:55:14 2013.

 -----------------------------------------------------------------
 #P Geom=AllCheck Guess=TCheck SCRF=Check GenChk RPBEPBE/TZVP Freq
 -----------------------------------------------------------------

 Structure from the checkpoint file:  "/tmp/rdj3/g09-16643/Gau-4577.chk"
 -------------------------------------------------------------------
 1H-tetrazole CH2N4 casno=288948 state=1 config=1 method=69 basis=32
 -------------------------------------------------------------------
 Charge =  0 Multiplicity = 1

                         Standard orientation:
 ---------------------------------------------------------------------
 Center     Atomic      Atomic             Coordinates (Angstroms)
 Number     Number       Type             X           Y           Z
 ---------------------------------------------------------------------
      1          6           0        1.072138    0.238288    0.000000
      2          7           0        0.000000    1.059810    0.000000
      3          7           0       -1.129014    0.302142    0.000000
      4          7           0       -0.725436   -0.931805    0.000000
      5          7           0        0.643549   -1.011587    0.000000
      6          1           0        2.106149    0.566144    0.000000
      7          1           0       -0.062671    2.074211    0.000000
 ---------------------------------------------------------------------

 SCF Done:  E(RPBE-PBE) =  -258.062776137     A.U. after    1 cycles

 The electronic state is 1-A'.
 Alpha  occ. eigenvalues --  -14.10313 -14.06549 -14.04864 -14.02282  -9.97875
 Alpha  occ. eigenvalues --   -1.06274  -0.87625  -0.82657  -0.62785  -0.61537
 Alpha  occ. eigenvalues --   -0.55001  -0.45825  -0.45546  -0.33838  -0.30688
 Alpha  occ. eigenvalues --   -0.28853  -0.26842  -0.25377
 Alpha virt. eigenvalues --   -0.06934  -0.03664  -0.01262   0.03938   0.09003
 Alpha virt. eigenvalues --    0.09905   0.11052   0.17496   0.18245   0.22154
 Alpha virt. eigenvalues --    0.25283   0.27907   0.30830   0.31509   0.32253

 Mulliken charges:
               1
     1  C   -0.133679
     2  N   -0.080796
     3  N   -0.070396
     4  N   -0.081349
     5  N   -0.035305
     6  H    0.138613
     7  H    0.262911
 Sum of Mulliken charges =   0.00000

 Dipole moment (field-independent basis, Debye):
    X=              2.4937    Y=              4.7814    Z=              0.0000  Tot=              5.3926
 Quadrupole moment (field-independent basis, Debye-Ang):
   XX=            -29.4270   YY=            -26.8092   ZZ=            -28.6253
   XY=              1.8345   XZ=              0.0000   YZ=              0.0000

  Exact polarizability:  43.608   0.829  43.257   0.000   0.000  22.330
 Approx polarizability:  88.207   0.162  94.197   0.000   0.000  37.178

                      1                      2                      3
                     A"                     A"                     A"
 Frequencies --    559.9679               673.0178               712.3917
 Red. masses --      2.1247                 1.8171                 6.9627
 Frc consts  --      0.3925                 0.4849                 2.0819
 IR Inten    --     63.6970                14.0996                 8.8891

                      4                      5                      6
                     A"                     A'                     A'
 Frequencies --    798.5141               918.7309               966.0700
 Red. masses --      1.3087                 5.4869                 4.6691
 Frc consts  --      0.4916                 2.7287                 2.5674
 IR Inten    --     30.3024                 7.1608                 6.7345

                      7                      8                      9
                     A'                     A'                     A'
 Frequencies --    987.3701              1020.4907              1112.5397
 Red. masses --      8.5737                 3.2988                 1.9393
 Frc consts  --      4.9247                 2.0241                 1.4142
 IR Inten    --      8.7409                25.2425                15.8968

                     10                     11                     12
                     A'                     A'                     A'
 Frequencies --   1207.1291              1227.6868              1400.8526
 Red. masses --      2.6092                 6.0567                 3.1847
 Frc consts  --      2.2401                 5.3785                 3.6822
 IR Inten    --     12.8348                 3.2451                 7.7193

                     13                     14                     15
                     A'                     A'                     A'
 Frequencies --   1445.4342              3212.0605              3552.3387
 Red. masses --      3.1421                 1.1000                 1.0832
 Frc consts  --      3.8678                 6.6865                 8.0532
 IR Inten    --     14.1917                 1.8725                71.9085

 - Thermochemistry -
 -------------------
 Temperature   298.150 Kelvin.  Pressure   1.00000 Atm.
 Atom     1 has atomic number  6 and mass  12.00000

 Molecular mass:    70.02795 amu.
 Principal axes and moments of inertia in atomic units:
                           1         2         3
     Eigenvalues --   173.34171 176.49399 349.83570
           X            0.88204   0.47118   0.00000
           Y           -0.47118   0.88204   0.00000
           Z            0.00000   0.00000   1.00000
 This molecule is an asymmetric top.
 Rotational symmetry number  1.
 Rotational temperatures (Kelvin)      0.49967     0.49075     0.24758
 Rotational constants (GHZ):          10.41147    10.22551     5.15883
 Zero-point vibrational energy     118398.0 (Joules/Mol)
                                   28.29779 (Kcal/Mol)
 Warning -- explicit consideration of   1 degrees of freedom as
           vibrations may cause significant error
 Vibrational temperatures:    805.67   968.32  1024.97  1148.88  1321.85
          (Kelvin)           1389.96  1420.60  1468.26  1600.69  1736.79
                             1766.37  2015.51  2079.65  4621.43  5111.02

 Zero-point correction=                           0.045095 (Hartree/Particle)
 Thermal correction to Energy=                    0.048656
 Thermal correction to Enthalpy=                  0.049600
 Thermal correction to Gibbs Free Energy=         0.018956
 Sum of electronic and zero-point Energies=           -258.017681
 Sum of electronic and thermal Energies=              -258.014121
 Sum of electronic and thermal Enthalpies=            -258.013176
 Sum of electronic and thermal Free Energies=         -258.043820

                     E (Thermal)             CV                S
                      KCal/Mol        Cal/Mol-Kelvin    Cal/Mol-Kelvin
 Total                   30.532             11.911             64.496
 Electronic               0.000              0.000              0.000
 Translational            0.889              2.981             38.656
 Rotational               0.889              2.981             23.885
 Vibrational             28.754              5.949              1.954
 Vibration     1          0.916              1.118              0.524

 Normal termination of Gaussian 09 at Wed Dec  4 11:55:37 2013.
