 Gaussian 09, Revision D.01,
 Gaussian 09:  EM64L-G09RevD.01 24-Apr-2013

 ---------------------------------------------------------
 #PBEPBE/6-31G* integral(grid=ultrafine) opt=z-matrix freq
 ---------------------------------------------------------

 ------------------------------------------------------------------
 1H-tetrazole CH2N4 casno=288948 state=1 config=1 method=69 basis=1
 ------------------------------------------------------------------
 Symbolic Z-matrix:
 Charge =  0 Multiplicity = 1

 SCF Done:  E(RPBE-PBE) =  -257.971530405     A.U. after   15 cycles
 SCF Done:  E(RPBE-PBE) =  -257.979347583     A.U. after   14 cycles
 SCF Done:  E(RPBE-PBE) =  -257.979527454     A.U. after   13 cycles
 SCF Done:  E(RPBE-PBE) =  -257.979553450     A.U. after   12 cycles
 SCF Done:  E(RPBE-PBE) =  -257.979571624     A.U. after   11 cycles
 SCF Done:  E(RPBE-PBE) =  -257.978888199     A.U. after   13 cycles
 SCF Done:  E(RPBE-PBE) =  -257.979571521     A.U. after    9 cycles
 SCF Done:  E(RPBE-PBE) =  -257.979572666     A.U. after    8 cycles
 SCF Done:  E(RPBE-PBE) =  -257.978721483     A.U. after   13 cycles
 SCF Done:  E(RPBE-PBE) =  -257.979572738     A.U. after    9 cycles
 SCF Done:  E(RPBE-PBE) =  -257.979244137     A.U. after   13 cycles
 SCF Done:  E(RPBE-PBE) =  -257.979572402     A.U. after    9 cycles
 SCF Done:  E(RPBE-PBE) =  -257.979572765     A.U. after    5 cycles
 Optimization completed.
    -- Stationary point found.
 Normal termination of Gaussian 09 at Wed Dec  4 11:53:26 2013.

 ---------------------------------------------------------------------
 #P Geom=AllCheck Guess=TCheck SCRF=Check GenChk RPBEPBE/6-31G(d) Freq
 ---------------------------------------------------------------------

 Structure from the checkpoint file:  "/tmp/rdj3/g09-16643/Gau-1795.chk"
 ------------------------------------------------------------------
 1H-tetrazole CH2N4 casno=288948 state=1 config=1 method=69 basis=1
 ------------------------------------------------------------------
 Charge =  0 Multiplicity = 1

                         Standard orientation:
 ---------------------------------------------------------------------
 Center     Atomic      Atomic             Coordinates (Angstroms)
 Number     Number       Type             X           Y           Z
 ---------------------------------------------------------------------
      1          6           0        1.074881    0.238402    0.000000
      2          7           0        0.000000    1.061293    0.000000
      3          7           0       -1.132198    0.306412    0.000000
      4          7           0       -0.726000   -0.934334    0.000000
      5          7           0        0.644254   -1.016203    0.000000
      6          1           0        2.110666    0.570940    0.000000
      7          1           0       -0.062348    2.078469    0.000000
 ---------------------------------------------------------------------

 SCF Done:  E(RPBE-PBE) =  -257.979572765     A.U. after    1 cycles

 The electronic state is 1-A'.
 Alpha  occ. eigenvalues --  -14.11851 -14.07739 -14.06026 -14.03479  -9.98967
 Alpha  occ. eigenvalues --   -1.04714  -0.86470  -0.81301  -0.61817  -0.60306
 Alpha  occ. eigenvalues --   -0.53888  -0.44831  -0.44233  -0.32628  -0.29433
 Alpha  occ. eigenvalues --   -0.27531  -0.25719  -0.24182
 Alpha virt. eigenvalues --   -0.05626  -0.02281   0.02624   0.07496   0.13501
 Alpha virt. eigenvalues --    0.16028   0.22890   0.28316   0.34944   0.46862
 Alpha virt. eigenvalues --    0.48307   0.54445   0.56024   0.58766   0.61757

 Mulliken charges:
               1
     1  C    0.243096
     2  N   -0.399577
     3  N   -0.039972
     4  N   -0.083178
     5  N   -0.287330
     6  H    0.204796
     7  H    0.362164
 Sum of Mulliken charges =   0.00000

 Dipole moment (field-independent basis, Debye):
    X=              2.4056    Y=              4.6462    Z=              0.0000  Tot=              5.2320
 Quadrupole moment (field-independent basis, Debye-Ang):
   XX=            -28.5493   YY=            -25.8896   ZZ=            -28.1980
   XY=              1.7286   XZ=              0.0000   YZ=              0.0000

  Exact polarizability:  39.003   1.056  38.557   0.000   0.000  15.787
 Approx polarizability:  84.424   0.040  89.994   0.000   0.000  27.780

                      1                      2                      3
                     A"                     A"                     A"
 Frequencies --    554.7689               672.1553               716.4706
 Red. masses --      1.7864                 2.0046                 8.0623
 Frc consts  --      0.3239                 0.5336                 2.4384
 IR Inten    --     81.9816                 8.5896                 7.3475

                      4                      5                      6
                     A"                     A'                     A'
 Frequencies --    799.1135               932.2673               973.5715
 Red. masses --      1.3403                 4.6298                 5.1517
 Frc consts  --      0.5043                 2.3708                 2.8770
 IR Inten    --     22.8508                 4.5153                 1.6696

                      7                      8                      9
                     A'                     A'                     A'
 Frequencies --   1014.9864              1031.4150              1118.6009
 Red. masses --      5.9817                 3.7745                 1.8412
 Frc consts  --      3.6307                 2.3658                 1.3574
 IR Inten    --     13.3881                26.7181                13.5272

                     10                     11                     12
                     A'                     A'                     A'
 Frequencies --   1216.9822              1236.3146              1418.6270
 Red. masses --      2.6521                 6.9801                 3.3081
 Frc consts  --      2.3143                 6.2860                 3.9225
 IR Inten    --     10.9005                 4.2771                 7.7976

                     13                     14                     15
                     A'                     A'                     A'
 Frequencies --   1455.4265              3235.2311              3554.5352
 Red. masses --      3.2896                 1.0994                 1.0830
 Frc consts  --      4.1056                 6.7800                 8.0620
 IR Inten    --     14.7838                 0.5853                57.1488

 - Thermochemistry -
 -------------------
 Temperature   298.150 Kelvin.  Pressure   1.00000 Atm.
 Atom     1 has atomic number  6 and mass  12.00000

 Molecular mass:    70.02795 amu.
 Principal axes and moments of inertia in atomic units:
                           1         2         3
     Eigenvalues --   174.09417 177.58222 351.67639
           X            0.84084   0.54128   0.00000
           Y           -0.54128   0.84084   0.00000
           Z            0.00000   0.00000   1.00000
 This molecule is an asymmetric top.
 Rotational symmetry number  1.
 Rotational temperatures (Kelvin)      0.49751     0.48774     0.24629
 Rotational constants (GHZ):          10.36647    10.16285     5.13182
 Zero-point vibrational energy     119210.7 (Joules/Mol)
                                   28.49203 (Kcal/Mol)
 Warning -- explicit consideration of   1 degrees of freedom as
           vibrations may cause significant error
 Vibrational temperatures:    798.19   967.08  1030.84  1149.74  1341.32
          (Kelvin)           1400.75  1460.34  1483.97  1609.42  1750.96
                             1778.78  2041.09  2094.03  4654.77  5114.18

 Zero-point correction=                           0.045405 (Hartree/Particle)
 Thermal correction to Energy=                    0.048955
 Thermal correction to Enthalpy=                  0.049900
 Thermal correction to Gibbs Free Energy=         0.019260
 Sum of electronic and zero-point Energies=           -257.934168
 Sum of electronic and thermal Energies=              -257.930617
 Sum of electronic and thermal Enthalpies=            -257.929673
 Sum of electronic and thermal Free Energies=         -257.960313

                     E (Thermal)             CV                S
                      KCal/Mol        Cal/Mol-Kelvin    Cal/Mol-Kelvin
 Total                   30.720             11.822             64.488
 Electronic               0.000              0.000              0.000
 Translational            0.889              2.981             38.656
 Rotational               0.889              2.981             23.901
 Vibrational             28.943              5.860              1.930
 Vibration     1          0.910              1.129              0.534

 Normal termination of Gaussian 09 at Wed Dec  4 11:53:39 2013.
