 Gaussian 09, Revision D.01,
 Gaussian 09:  EM64L-G09RevD.01 24-Apr-2013

 --------------------------------------------------------------
 #PBEPBE/aug-cc-pVDZ integral(grid=ultrafine) opt=z-matrix freq
 --------------------------------------------------------------

 -------------------------------------------------------------------
 1H-tetrazole CH2N4 casno=288948 state=1 config=1 method=69 basis=17
 -------------------------------------------------------------------
 Symbolic Z-matrix:
 Charge =  0 Multiplicity = 1

 SCF Done:  E(RPBE-PBE) =  -258.016143461     A.U. after   12 cycles
 SCF Done:  E(RPBE-PBE) =  -258.024217182     A.U. after   11 cycles
 SCF Done:  E(RPBE-PBE) =  -258.024428157     A.U. after   11 cycles
 SCF Done:  E(RPBE-PBE) =  -258.024451944     A.U. after    9 cycles
 SCF Done:  E(RPBE-PBE) =  -258.021725445     A.U. after   11 cycles
 SCF Done:  E(RPBE-PBE) =  -258.024455897     A.U. after   10 cycles
 SCF Done:  E(RPBE-PBE) =  -258.024461781     A.U. after    9 cycles
 SCF Done:  E(RPBE-PBE) =  -258.024210953     A.U. after   11 cycles
 SCF Done:  E(RPBE-PBE) =  -258.024461773     A.U. after    7 cycles
 SCF Done:  E(RPBE-PBE) =  -258.024462534     A.U. after    8 cycles
 SCF Done:  E(RPBE-PBE) =  -258.024462293     A.U. after    8 cycles
 SCF Done:  E(RPBE-PBE) =  -258.024462675     A.U. after    5 cycles
 SCF Done:  E(RPBE-PBE) =  -258.024461208     A.U. after    9 cycles
 SCF Done:  E(RPBE-PBE) =  -258.024462674     A.U. after    5 cycles
 SCF Done:  E(RPBE-PBE) =  -258.024462684     A.U. after    6 cycles
 SCF Done:  E(RPBE-PBE) =  -258.024462671     A.U. after    7 cycles
 SCF Done:  E(RPBE-PBE) =  -258.024462686     A.U. after    6 cycles
 SCF Done:  E(RPBE-PBE) =  -258.024462679     A.U. after    6 cycles
 Optimization completed.
    -- Stationary point found.
 Normal termination of Gaussian 09 at Wed Dec  4 11:27:19 2013.

 ----------------------------------------------------------------------
 #P Geom=AllCheck Guess=TCheck SCRF=Check GenChk RPBEPBE/Aug-CC-pVDZ Fr
 eq
 ----------------------------------------------------------------------

 Structure from the checkpoint file:  "/tmp/rdj3/g09-16643/Gau-30807.chk"
 -------------------------------------------------------------------
 1H-tetrazole CH2N4 casno=288948 state=1 config=1 method=69 basis=17
 -------------------------------------------------------------------
 Charge =  0 Multiplicity = 1

                         Standard orientation:
 ---------------------------------------------------------------------
 Center     Atomic      Atomic             Coordinates (Angstroms)
 Number     Number       Type             X           Y           Z
 ---------------------------------------------------------------------
      1          6           0        1.075614    0.238457    0.000000
      2          7           0        0.000000    1.061694    0.000000
      3          7           0       -1.130677    0.307858    0.000000
      4          7           0       -0.726984   -0.934841    0.000000
      5          7           0        0.641957   -1.017612    0.000000
      6          1           0        2.115035    0.569976    0.000000
      7          1           0       -0.058795    2.079595    0.000000
 ---------------------------------------------------------------------

 SCF Done:  E(RPBE-PBE) =  -258.024462679     A.U. after    3 cycles

 The electronic state is 1-A'.
 Alpha  occ. eigenvalues --  -14.11899 -14.08231 -14.06691 -14.04153  -9.99286
 Alpha  occ. eigenvalues --   -1.05858  -0.87594  -0.82386  -0.62711  -0.61415
 Alpha  occ. eigenvalues --   -0.54701  -0.45649  -0.45359  -0.33945  -0.30664
 Alpha  occ. eigenvalues --   -0.28654  -0.27157  -0.25685
 Alpha virt. eigenvalues --   -0.07145  -0.04132  -0.03984  -0.00414   0.02431
 Alpha virt. eigenvalues --    0.03322   0.04498   0.05671   0.07025   0.07894
 Alpha virt. eigenvalues --    0.09275   0.09873   0.11088   0.11164   0.12896

 Mulliken charges:
               1
     1  C    0.820571
     2  N    0.077205
     3  N   -0.101413
     4  N   -0.259111
     5  N   -0.253575
     6  H   -0.205245
     7  H   -0.078432
 Sum of Mulliken charges =   0.00000

 Dipole moment (field-independent basis, Debye):
    X=              2.4661    Y=              4.6591    Z=              0.0000  Tot=              5.2715
 Quadrupole moment (field-independent basis, Debye-Ang):
   XX=            -29.4166   YY=            -26.8492   ZZ=            -28.9827
   XY=              1.8532   XZ=              0.0000   YZ=              0.0000

  Exact polarizability:  48.501   0.598  48.027   0.000   0.000  27.244
 Approx polarizability:  96.857   0.314 101.949   0.000   0.000  45.624

                      1                      2                      3
                     A"                     A"                     A"
 Frequencies --    579.3712               670.3321               716.5230
 Red. masses --      1.7866                 1.8960                 8.3660
 Frc consts  --      0.3533                 0.5020                 2.5306
 IR Inten    --     71.2778                 7.7595                 7.2032

                      4                      5                      6
                     A"                     A'                     A'
 Frequencies --    807.5367               930.1701               972.4595
 Red. masses --      1.3855                 4.1235                 5.3536
 Frc consts  --      0.5323                 2.1020                 2.9829
 IR Inten    --     21.9874                 3.8635                 1.2190

                      7                      8                      9
                     A'                     A'                     A'
 Frequencies --   1015.4841              1026.4578              1104.8078
 Red. masses --      4.8496                 3.7340                 1.9305
 Frc consts  --      2.9465                 2.3180                 1.3883
 IR Inten    --     14.4499                26.0301                12.4962

                     10                     11                     12
                     A'                     A'                     A'
 Frequencies --   1207.4500              1231.4821              1407.4579
 Red. masses --      2.5512                 8.7328                 3.4638
 Frc consts  --      2.1915                 7.8029                 4.0428
 IR Inten    --      6.9687                 4.8459                 7.5159

                     13                     14                     15
                     A'                     A'                     A'
 Frequencies --   1442.8100              3216.7967              3546.3748
 Red. masses --      3.3686                 1.1006                 1.0837
 Frc consts  --      4.1316                 6.7100                 8.0306
 IR Inten    --     12.8579                 1.4611                66.4604

 - Thermochemistry -
 -------------------
 Temperature   298.150 Kelvin.  Pressure   1.00000 Atm.
 Atom     1 has atomic number  6 and mass  12.00000

 Molecular mass:    70.02795 amu.
 Principal axes and moments of inertia in atomic units:
                           1         2         3
     Eigenvalues --   174.36395 177.48658 351.85052
           X            0.81592   0.57817   0.00000
           Y           -0.57817   0.81592   0.00000
           Z            0.00000   0.00000   1.00000
 This molecule is an asymmetric top.
 Rotational symmetry number  1.
 Rotational temperatures (Kelvin)      0.49674     0.48800     0.24617
 Rotational constants (GHZ):          10.35043    10.16833     5.12928
 Zero-point vibrational energy     118882.0 (Joules/Mol)
                                   28.41347 (Kcal/Mol)
 Warning -- explicit consideration of   1 degrees of freedom as
           vibrations may cause significant error
 Vibrational temperatures:    833.58   964.46  1030.92  1161.86  1338.31
          (Kelvin)           1399.15  1461.05  1476.84  1589.57  1737.25
                             1771.83  2025.02  2075.88  4628.25  5102.44

 Zero-point correction=                           0.045280 (Hartree/Particle)
 Thermal correction to Energy=                    0.048818
 Thermal correction to Enthalpy=                  0.049762
 Thermal correction to Gibbs Free Energy=         0.019141
 Sum of electronic and zero-point Energies=           -257.979183
 Sum of electronic and thermal Energies=              -257.975645
 Sum of electronic and thermal Enthalpies=            -257.974701
 Sum of electronic and thermal Free Energies=         -258.005322

                     E (Thermal)             CV                S
                      KCal/Mol        Cal/Mol-Kelvin    Cal/Mol-Kelvin
 Total                   30.634             11.795             64.447
 Electronic               0.000              0.000              0.000
 Translational            0.889              2.981             38.656
 Rotational               0.889              2.981             23.903
 Vibrational             28.856              5.833              1.888
 Vibration     1          0.936              1.076              0.487

 Normal termination of Gaussian 09 at Wed Dec  4 11:28:06 2013.
