 Gaussian 09, Revision D.01,
 Gaussian 09:  EM64L-G09RevD.01 24-Apr-2013

 --------------------------------------------------------
 #PBEPBE/3-21G integral(grid=ultrafine) opt=z-matrix freq
 --------------------------------------------------------

 ------------------------------------------------------------------
 1H-tetrazole CH2N4 casno=288948 state=1 config=1 method=69 basis=2
 ------------------------------------------------------------------
 Symbolic Z-matrix:
 Charge =  0 Multiplicity = 1

 SCF Done:  E(RPBE-PBE) =  -256.490511971     A.U. after   15 cycles
 SCF Done:  E(RPBE-PBE) =  -256.517318366     A.U. after   15 cycles
 SCF Done:  E(RPBE-PBE) =  -256.519699358     A.U. after   14 cycles
 SCF Done:  E(RPBE-PBE) =  -256.518900894     A.U. after   13 cycles
 SCF Done:  E(RPBE-PBE) =  -256.520138581     A.U. after   12 cycles
 SCF Done:  E(RPBE-PBE) =  -256.520210750     A.U. after   10 cycles
 SCF Done:  E(RPBE-PBE) =  -256.520004660     A.U. after   12 cycles
 SCF Done:  E(RPBE-PBE) =  -256.520225583     A.U. after    9 cycles
 SCF Done:  E(RPBE-PBE) =  -256.520232615     A.U. after    9 cycles
 SCF Done:  E(RPBE-PBE) =  -256.520178228     A.U. after   12 cycles
 SCF Done:  E(RPBE-PBE) =  -256.520235775     A.U. after    8 cycles
 SCF Done:  E(RPBE-PBE) =  -256.520237414     A.U. after    9 cycles
 SCF Done:  E(RPBE-PBE) =  -256.520237765     A.U. after    9 cycles
 SCF Done:  E(RPBE-PBE) =  -256.520238004     A.U. after    8 cycles
 SCF Done:  E(RPBE-PBE) =  -256.520238026     A.U. after    7 cycles
 SCF Done:  E(RPBE-PBE) =  -256.520218107     A.U. after   12 cycles
 SCF Done:  E(RPBE-PBE) =  -256.520238067     A.U. after    8 cycles
 Optimization completed.
    -- Stationary point found.
 Normal termination of Gaussian 09 at Wed Dec  4 11:54:09 2013.

 ------------------------------------------------------------------
 #P Geom=AllCheck Guess=TCheck SCRF=Check GenChk RPBEPBE/3-21G Freq
 ------------------------------------------------------------------

 Structure from the checkpoint file:  "/tmp/rdj3/g09-16643/Gau-2996.chk"
 ------------------------------------------------------------------
 1H-tetrazole CH2N4 casno=288948 state=1 config=1 method=69 basis=2
 ------------------------------------------------------------------
 Charge =  0 Multiplicity = 1

                         Standard orientation:
 ---------------------------------------------------------------------
 Center     Atomic      Atomic             Coordinates (Angstroms)
 Number     Number       Type             X           Y           Z
 ---------------------------------------------------------------------
      1          6           0        1.085145    0.265252    0.000000
      2          7           0        0.000000    1.094032    0.000000
      3          7           0       -1.186343    0.293152    0.000000
      4          7           0       -0.747284   -0.980610    0.000000
      5          7           0        0.711649   -1.023545    0.000000
      6          1           0        2.110951    0.613150    0.000000
      7          1           0       -0.067975    2.114139    0.000000
 ---------------------------------------------------------------------

 SCF Done:  E(RPBE-PBE) =  -256.520238067     A.U. after    1 cycles

 The electronic state is 1-A'.
 Alpha  occ. eigenvalues --  -14.04133 -14.01019 -13.99265 -13.96400  -9.93962
 Alpha  occ. eigenvalues --   -1.04111  -0.85988  -0.82914  -0.61364  -0.60606
 Alpha  occ. eigenvalues --   -0.54390  -0.44514  -0.43010  -0.31513  -0.28761
 Alpha  occ. eigenvalues --   -0.27709  -0.25509  -0.24094
 Alpha virt. eigenvalues --   -0.06786  -0.03049   0.03923   0.05384   0.12147
 Alpha virt. eigenvalues --    0.14596   0.19386   0.29958   0.32002   0.61227
 Alpha virt. eigenvalues --    0.64661   0.75015   0.78035   0.85485   0.94975

 Mulliken charges:
               1
     1  C    0.289634
     2  N   -0.500951
     3  N   -0.035197
     4  N   -0.078304
     5  N   -0.314818
     6  H    0.275251
     7  H    0.364385
 Sum of Mulliken charges =   0.00000

 Dipole moment (field-independent basis, Debye):
    X=              2.3553    Y=              4.7936    Z=              0.0000  Tot=              5.3410
 Quadrupole moment (field-independent basis, Debye-Ang):
   XX=            -28.9479   YY=            -26.1850   ZZ=            -28.6627
   XY=              1.9361   XZ=              0.0000   YZ=              0.0000

  Exact polarizability:  36.574   1.296  36.290   0.000   0.000  11.512
 Approx polarizability:  87.604  -1.561  98.678   0.000   0.000  18.020

                      1                      2                      3
                     A"                     A"                     A"
 Frequencies --    596.3410               651.3490               658.9438
 Red. masses --      2.4979                 1.4652                 8.0010
 Frc consts  --      0.5234                 0.3662                 2.0469
 IR Inten    --     91.6417                44.8946                11.4099

                      4                      5                      6
                     A'                     A'                     A"
 Frequencies --    733.0637               803.2509               866.1954
 Red. masses --     10.1940                 6.7002                 1.3731
 Frc consts  --      3.2276                 2.5471                 0.6070
 IR Inten    --      9.1973                13.2813                21.9462

                      7                      8                      9
                     A'                     A'                     A'
 Frequencies --    934.2966               970.4793              1017.4251
 Red. masses --      4.2714                 7.0636                 9.8932
 Frc consts  --      2.1968                 3.9196                 6.0338
 IR Inten    --      7.7310                 6.7296                 0.5397

                     10                     11                     12
                     A'                     A'                     A'
 Frequencies --   1107.6036              1163.8626              1313.4476
 Red. masses --      1.8637                 2.2518                 2.8911
 Frc consts  --      1.3471                 1.7972                 2.9386
 IR Inten    --     12.8128                 7.4214                 3.6078

                     13                     14                     15
                     A'                     A'                     A'
 Frequencies --   1371.2080              3244.5957              3484.8873
 Red. masses --      2.1498                 1.0983                 1.0844
 Frc consts  --      2.3815                 6.8123                 7.7591
 IR Inten    --     35.0964                 1.7363                67.7364

 - Thermochemistry -
 -------------------
 Temperature   298.150 Kelvin.  Pressure   1.00000 Atm.
 Atom     1 has atomic number  6 and mass  12.00000

 Molecular mass:    70.02795 amu.
 Principal axes and moments of inertia in atomic units:
                           1         2         3
     Eigenvalues --   184.52755 190.10993 374.63748
           X            0.98409   0.17770   0.00000
           Y           -0.17770   0.98409   0.00000
           Z            0.00000   0.00000   1.00000
 This molecule is an asymmetric top.
 Rotational symmetry number  1.
 Rotational temperatures (Kelvin)      0.46938     0.45560     0.23119
 Rotational constants (GHZ):           9.78033     9.49315     4.81730
 Zero-point vibrational energy     113148.5 (Joules/Mol)
                                   27.04314 (Kcal/Mol)
 Warning -- explicit consideration of   1 degrees of freedom as
           vibrations may cause significant error
 Vibrational temperatures:    858.00   937.14   948.07  1054.71  1155.70
          (Kelvin)           1246.26  1344.24  1396.30  1463.85  1593.59
                             1674.54  1889.76  1972.86  4668.24  5013.97

 Zero-point correction=                           0.043096 (Hartree/Particle)
 Thermal correction to Energy=                    0.046779
 Thermal correction to Enthalpy=                  0.047723
 Thermal correction to Gibbs Free Energy=         0.016825
 Sum of electronic and zero-point Energies=           -256.477142
 Sum of electronic and thermal Energies=              -256.473459
 Sum of electronic and thermal Enthalpies=            -256.472515
 Sum of electronic and thermal Free Energies=         -256.503413

                     E (Thermal)             CV                S
                      KCal/Mol        Cal/Mol-Kelvin    Cal/Mol-Kelvin
 Total                   29.354             12.782             65.032
 Electronic               0.000              0.000              0.000
 Translational            0.889              2.981             38.656
 Rotational               0.889              2.981             24.089
 Vibrational             27.577              6.821              2.286
 Vibration     1          0.954              1.040              0.456

 Normal termination of Gaussian 09 at Wed Dec  4 11:54:14 2013.
