 Gaussian 09, Revision D.01,
 Gaussian 09:  EM64L-G09RevD.01 24-Apr-2013

 ----------------------------------------------------------
 #PBEPBE/6-31G** integral(grid=ultrafine) opt=z-matrix freq
 ----------------------------------------------------------

 ------------------------------------------------------------------
 1H-tetrazole CH2N4 casno=288948 state=1 config=1 method=69 basis=3
 ------------------------------------------------------------------
 Symbolic Z-matrix:
 Charge =  0 Multiplicity = 1

 SCF Done:  E(RPBE-PBE) =  -257.976533182     A.U. after   15 cycles
 SCF Done:  E(RPBE-PBE) =  -257.984246805     A.U. after   14 cycles
 SCF Done:  E(RPBE-PBE) =  -257.984414086     A.U. after   12 cycles
 SCF Done:  E(RPBE-PBE) =  -257.984447141     A.U. after   12 cycles
 SCF Done:  E(RPBE-PBE) =  -257.984468151     A.U. after   11 cycles
 SCF Done:  E(RPBE-PBE) =  -257.983781759     A.U. after   13 cycles
 SCF Done:  E(RPBE-PBE) =  -257.984468070     A.U. after    9 cycles
 SCF Done:  E(RPBE-PBE) =  -257.984469139     A.U. after    8 cycles
 SCF Done:  E(RPBE-PBE) =  -257.983390528     A.U. after   13 cycles
 SCF Done:  E(RPBE-PBE) =  -257.984469265     A.U. after    8 cycles
 Optimization completed.
    -- Stationary point found.
 Normal termination of Gaussian 09 at Wed Dec  4 11:56:16 2013.

 ----------------------------------------------------------------------
 #P Geom=AllCheck Guess=TCheck SCRF=Check GenChk RPBEPBE/6-31G(d,p) Fre
 q
 ----------------------------------------------------------------------

 Structure from the checkpoint file:  "/tmp/rdj3/g09-16643/Gau-5893.chk"
 ------------------------------------------------------------------
 1H-tetrazole CH2N4 casno=288948 state=1 config=1 method=69 basis=3
 ------------------------------------------------------------------
 Charge =  0 Multiplicity = 1

                         Standard orientation:
 ---------------------------------------------------------------------
 Center     Atomic      Atomic             Coordinates (Angstroms)
 Number     Number       Type             X           Y           Z
 ---------------------------------------------------------------------
      1          6           0        1.074844    0.238484    0.000000
      2          7           0        0.000000    1.061570    0.000000
      3          7           0       -1.132135    0.305973    0.000000
      4          7           0       -0.726028   -0.934203    0.000000
      5          7           0        0.643962   -1.016100    0.000000
      6          1           0        2.109978    0.570863    0.000000
      7          1           0       -0.059631    2.077548    0.000000
 ---------------------------------------------------------------------

 SCF Done:  E(RPBE-PBE) =  -257.984469265     A.U. after    1 cycles

 The electronic state is 1-A'.
 Alpha  occ. eigenvalues --  -14.11826 -14.07749 -14.06038 -14.03489  -9.98959
 Alpha  occ. eigenvalues --   -1.04702  -0.86444  -0.81302  -0.61732  -0.60290
 Alpha  occ. eigenvalues --   -0.53792  -0.44747  -0.44245  -0.32615  -0.29462
 Alpha  occ. eigenvalues --   -0.27549  -0.25715  -0.24184
 Alpha virt. eigenvalues --   -0.05688  -0.02328   0.02723   0.07520   0.13433
 Alpha virt. eigenvalues --    0.15913   0.22837   0.28319   0.34853   0.46461
 Alpha virt. eigenvalues --    0.48318   0.54381   0.56047   0.58203   0.61675

 Mulliken charges:
               1
     1  C    0.294231
     2  N   -0.330476
     3  N   -0.049241
     4  N   -0.083362
     5  N   -0.295087
     6  H    0.165878
     7  H    0.298056
 Sum of Mulliken charges =   0.00000

 Dipole moment (field-independent basis, Debye):
    X=              2.4031    Y=              4.6377    Z=              0.0000  Tot=              5.2233
 Quadrupole moment (field-independent basis, Debye-Ang):
   XX=            -28.5563   YY=            -25.9043   ZZ=            -28.1643
   XY=              1.7335   XZ=              0.0000   YZ=              0.0000

  Exact polarizability:  39.167   1.092  38.736   0.000   0.000  15.907
 Approx polarizability:  84.810   0.152  90.477   0.000   0.000  28.039

                      1                      2                      3
                     A"                     A"                     A"
 Frequencies --    565.0521               671.5337               716.1439
 Red. masses --      1.8112                 1.9723                 7.8956
 Frc consts  --      0.3407                 0.5240                 2.3858
 IR Inten    --     78.2899                 9.2363                 7.9086

                      4                      5                      6
                     A"                     A'                     A'
 Frequencies --    804.7191               932.1635               970.7574
 Red. masses --      1.3457                 4.5449                 4.9773
 Frc consts  --      0.5134                 2.3268                 2.7636
 IR Inten    --     21.5781                 4.2673                 2.0521

                      7                      8                      9
                     A'                     A'                     A'
 Frequencies --   1012.9502              1029.3848              1116.5636
 Red. masses --      5.8399                 3.7824                 1.8684
 Frc consts  --      3.5304                 2.3614                 1.3724
 IR Inten    --     14.1089                25.7099                13.7308

                     10                     11                     12
                     A'                     A'                     A'
 Frequencies --   1215.8924              1236.6194              1415.6070
 Red. masses --      2.4636                 8.4490                 3.2805
 Frc consts  --      2.1459                 7.6125                 3.8733
 IR Inten    --      9.5338                 5.9561                 7.9226

                     13                     14                     15
                     A'                     A'                     A'
 Frequencies --   1452.7796              3229.9300              3570.6506
 Red. masses --      3.4332                 1.0995                 1.0831
 Frc consts  --      4.2692                 6.7581                 8.1363
 IR Inten    --     14.0253                 0.9325                63.4499

 - Thermochemistry -
 -------------------
 Temperature   298.150 Kelvin.  Pressure   1.00000 Atm.
 Atom     1 has atomic number  6 and mass  12.00000

 Molecular mass:    70.02795 amu.
 Principal axes and moments of inertia in atomic units:
                           1         2         3
     Eigenvalues --   174.12591 177.49222 351.61813
           X            0.84349   0.53715   0.00000
           Y           -0.53715   0.84349   0.00000
           Z            0.00000   0.00000   1.00000
 This molecule is an asymmetric top.
 Rotational symmetry number  1.
 Rotational temperatures (Kelvin)      0.49742     0.48799     0.24633
 Rotational constants (GHZ):          10.36458    10.16800     5.13267
 Zero-point vibrational energy     119272.2 (Joules/Mol)
                                   28.50673 (Kcal/Mol)
 Warning -- explicit consideration of   1 degrees of freedom as
           vibrations may cause significant error
 Vibrational temperatures:    812.98   966.19  1030.37  1157.81  1341.17
          (Kelvin)           1396.70  1457.41  1481.05  1606.48  1749.40
                             1779.22  2036.74  2090.22  4647.14  5137.36

 Zero-point correction=                           0.045428 (Hartree/Particle)
 Thermal correction to Energy=                    0.048973
 Thermal correction to Enthalpy=                  0.049917
 Thermal correction to Gibbs Free Energy=         0.019287
 Sum of electronic and zero-point Energies=           -257.939041
 Sum of electronic and thermal Energies=              -257.935497
 Sum of electronic and thermal Enthalpies=            -257.934552
 Sum of electronic and thermal Free Energies=         -257.965183

                     E (Thermal)             CV                S
                      KCal/Mol        Cal/Mol-Kelvin    Cal/Mol-Kelvin
 Total                   30.731             11.804             64.467
 Electronic               0.000              0.000              0.000
 Translational            0.889              2.981             38.656
 Rotational               0.889              2.981             23.901
 Vibrational             28.953              5.842              1.910
 Vibration     1          0.921              1.107              0.514

 Normal termination of Gaussian 09 at Wed Dec  4 11:56:31 2013.
