 Gaussian 09, Revision D.01,
 Gaussian 09:  EM64L-G09RevD.01 24-Apr-2013

 -------------------------------------------------
 #PBEPBE/cc-pVTZ integral(grid=ultrafine) opt freq
 -------------------------------------------------

 ------------------------------------------------------------------
 1H-tetrazole CH2N4 casno=288948 state=1 config=1 method=69 basis=6
 ------------------------------------------------------------------
 Symbolic Z-matrix:
 Charge =  0 Multiplicity = 1

 SCF Done:  E(RPBE-PBE) =  -258.065093309     A.U. after   15 cycles
 SCF Done:  E(RPBE-PBE) =  -258.070659226     A.U. after   12 cycles
 SCF Done:  E(RPBE-PBE) =  -258.070820778     A.U. after   10 cycles
 SCF Done:  E(RPBE-PBE) =  -258.070834025     A.U. after    9 cycles
 SCF Done:  E(RPBE-PBE) =  -258.070842646     A.U. after    8 cycles
 SCF Done:  E(RPBE-PBE) =  -258.070843816     A.U. after    8 cycles
 Optimization completed.
    -- Stationary point found.
 Normal termination of Gaussian 09 at Mon Dec 16 15:14:54 2013.

 --------------------------------------------------------------------
 #P Geom=AllCheck Guess=TCheck SCRF=Check GenChk RPBEPBE/CC-pVTZ Freq
 --------------------------------------------------------------------

 Structure from the checkpoint file:  "/tmp/rdj3/g09-20196/Gau-25488.chk"
 ------------------------------------------------------------------
 1H-tetrazole CH2N4 casno=288948 state=1 config=1 method=69 basis=6
 ------------------------------------------------------------------
 Charge =  0 Multiplicity = 1

                         Standard orientation:
 ---------------------------------------------------------------------
 Center     Atomic      Atomic             Coordinates (Angstroms)
 Number     Number       Type             X           Y           Z
 ---------------------------------------------------------------------
      1          6           0        1.070663    0.237359    0.000000
      2          7           0        0.000000    1.058110    0.000000
      3          7           0       -1.126714    0.303487    0.000000
      4          7           0       -0.725400   -0.930408    0.000000
      5          7           0        0.642446   -1.011682    0.000000
      6          1           0        2.103118    0.568047    0.000000
      7          1           0       -0.059422    2.071254    0.000000
 ---------------------------------------------------------------------

 SCF Done:  E(RPBE-PBE) =  -258.070843816     A.U. after    1 cycles

 The electronic state is 1-A'.
 Alpha  occ. eigenvalues --  -14.10117 -14.06383 -14.04758 -14.02140  -9.97643
 Alpha  occ. eigenvalues --   -1.05396  -0.86924  -0.81879  -0.62153  -0.60916
 Alpha  occ. eigenvalues --   -0.54389  -0.45229  -0.45139  -0.33395  -0.30199
 Alpha  occ. eigenvalues --   -0.28313  -0.26382  -0.24980
 Alpha virt. eigenvalues --   -0.06342  -0.03183  -0.00739   0.03769   0.10952
 Alpha virt. eigenvalues --    0.12286   0.14420   0.19819   0.24291   0.24643
 Alpha virt. eigenvalues --    0.31218   0.32674   0.35477   0.37908   0.38665

 Mulliken charges:
               1
     1  C   -0.014580
     2  N    0.016647
     3  N   -0.079478
     4  N   -0.073735
     5  N   -0.139203
     6  H    0.125074
     7  H    0.165274
 Sum of Mulliken charges =   0.00000

 Dipole moment (field-independent basis, Debye):
    X=              2.3575    Y=              4.5932    Z=              0.0000  Tot=              5.1629
 Quadrupole moment (field-independent basis, Debye-Ang):
   XX=            -28.9633   YY=            -26.3370   ZZ=            -28.3484
   XY=              1.7746   XZ=              0.0000   YZ=              0.0000

  Exact polarizability:  43.107   0.953  42.500   0.000   0.000  21.152
 Approx polarizability:  89.683   0.599  94.865   0.000   0.000  37.331

                      1                      2                      3
                     A"                     A"                     A"
 Frequencies --    567.7656               673.4138               721.9835
 Red. masses --      1.6787                 2.0500                 8.2158
 Frc consts  --      0.3188                 0.5477                 2.5232
 IR Inten    --     71.5350                 5.2816                 7.5912

                      4                      5                      6
                     A"                     A'                     A'
 Frequencies --    821.9614               924.2831               969.4374
 Red. masses --      1.3822                 5.0286                 4.5945
 Frc consts  --      0.5502                 2.5311                 2.5441
 IR Inten    --     20.6753                 5.7882                 3.2059

                      7                      8                      9
                     A'                     A'                     A'
 Frequencies --    997.5508              1020.0761              1110.5948
 Red. masses --      7.7201                 3.1843                 1.9718
 Frc consts  --      4.5263                 1.9522                 1.4329
 IR Inten    --     10.2145                25.7714                15.4753

                     10                     11                     12
                     A'                     A'                     A'
 Frequencies --   1207.5590              1232.8126              1402.6477
 Red. masses --      2.4108                 8.0003                 3.1860
 Frc consts  --      2.0713                 7.1639                 3.6931
 IR Inten    --      8.5898                 4.4560                 7.2238

                     13                     14                     15
                     A'                     A'                     A'
 Frequencies --   1446.1233              3203.6755              3552.3079
 Red. masses --      3.4338                 1.0997                 1.0830
 Frc consts  --      4.2310                 6.6501                 8.0518
 IR Inten    --     12.7257                 0.8382                62.9105

 - Thermochemistry -
 -------------------
 Temperature   298.150 Kelvin.  Pressure   1.00000 Atm.
 Atom     1 has atomic number  6 and mass  12.00000

 Molecular mass:    70.02795 amu.
 Principal axes and moments of inertia in atomic units:
                           1         2         3
     Eigenvalues --   172.92365 176.08160 349.00525
           X            0.86352   0.50431   0.00000
           Y           -0.50431   0.86352   0.00000
           Z            0.00000   0.00000   1.00000
 This molecule is an asymmetric top.
 Rotational symmetry number  1.
 Rotational temperatures (Kelvin)      0.50088     0.49190     0.24817
 Rotational constants (GHZ):          10.43664    10.24946     5.17110
 Zero-point vibrational energy     118742.5 (Joules/Mol)
                                   28.38013 (Kcal/Mol)
 Warning -- explicit consideration of   1 degrees of freedom as
           vibrations may cause significant error
 Vibrational temperatures:    816.89   968.89  1038.77  1182.62  1329.84
          (Kelvin)           1394.80  1435.25  1467.66  1597.90  1737.41
                             1773.74  2018.09  2080.65  4609.37  5110.97

 Zero-point correction=                           0.045227 (Hartree/Particle)
 Thermal correction to Energy=                    0.048768
 Thermal correction to Enthalpy=                  0.049713
 Thermal correction to Gibbs Free Energy=         0.019097
 Sum of electronic and zero-point Energies=           -258.025617
 Sum of electronic and thermal Energies=              -258.022075
 Sum of electronic and thermal Enthalpies=            -258.021131
 Sum of electronic and thermal Free Energies=         -258.051746

                     E (Thermal)             CV                S
                      KCal/Mol        Cal/Mol-Kelvin    Cal/Mol-Kelvin
 Total                   30.603             11.813             64.435
 Electronic               0.000              0.000              0.000
 Translational            0.889              2.981             38.656
 Rotational               0.889              2.981             23.878
 Vibrational             28.825              5.851              1.901
 Vibration     1          0.924              1.101              0.509

 Optimization completed.
    -- Stationary point found.
 Normal termination of Gaussian 09 at Mon Dec 16 15:16:04 2013.
