 Gaussian 09, Revision D.01,
 Gaussian 09:  EM64L-G09RevD.01 24-Apr-2013

 ----------------------------------------------------------
 #PBEPBE/6-311G* integral(grid=ultrafine) opt=z-matrix freq
 ----------------------------------------------------------

 ------------------------------------------------------------------
 1H-tetrazole CH2N4 casno=288948 state=1 config=1 method=69 basis=7
 ------------------------------------------------------------------
 Symbolic Z-matrix:
 Charge =  0 Multiplicity = 1

 SCF Done:  E(RPBE-PBE) =  -258.031166772     A.U. after   15 cycles
 SCF Done:  E(RPBE-PBE) =  -258.037569627     A.U. after   13 cycles
 SCF Done:  E(RPBE-PBE) =  -258.037734567     A.U. after   12 cycles
 SCF Done:  E(RPBE-PBE) =  -258.037753050     A.U. after   11 cycles
 SCF Done:  E(RPBE-PBE) =  -258.037766247     A.U. after   11 cycles
 SCF Done:  E(RPBE-PBE) =  -258.037132670     A.U. after   13 cycles
 SCF Done:  E(RPBE-PBE) =  -258.037766101     A.U. after    9 cycles
 SCF Done:  E(RPBE-PBE) =  -258.037767283     A.U. after    8 cycles
 SCF Done:  E(RPBE-PBE) =  -258.036900507     A.U. after   13 cycles
 SCF Done:  E(RPBE-PBE) =  -258.037767332     A.U. after    9 cycles
 SCF Done:  E(RPBE-PBE) =  -258.037425596     A.U. after   12 cycles
 SCF Done:  E(RPBE-PBE) =  -258.030950265     A.U. after   14 cycles
 SCF Done:  E(RPBE-PBE) =  -258.037767369     A.U. after    7 cycles
 SCF Done:  E(RPBE-PBE) =  -258.036165745     A.U. after   13 cycles
 SCF Done:  E(RPBE-PBE) =  -258.037767366     A.U. after    7 cycles
 Optimization completed.
    -- Stationary point found.
 Normal termination of Gaussian 09 at Wed Dec  4 12:05:59 2013.

 ----------------------------------------------------------------------
 #P Geom=AllCheck Guess=TCheck SCRF=Check GenChk RPBEPBE/6-311G(d) Freq
 ----------------------------------------------------------------------

 Structure from the checkpoint file:  "/tmp/rdj3/g09-16643/Gau-11180.chk"
 ------------------------------------------------------------------
 1H-tetrazole CH2N4 casno=288948 state=1 config=1 method=69 basis=7
 ------------------------------------------------------------------
 Charge =  0 Multiplicity = 1

                         Standard orientation:
 ---------------------------------------------------------------------
 Center     Atomic      Atomic             Coordinates (Angstroms)
 Number     Number       Type             X           Y           Z
 ---------------------------------------------------------------------
      1          6           0        1.072581    0.236681    0.000000
      2          7           0        0.000000    1.060232    0.000000
      3          7           0       -1.129311    0.304476    0.000000
      4          7           0       -0.725659   -0.931270    0.000000
      5          7           0        0.643494   -1.013603    0.000000
      6          1           0        2.107381    0.566653    0.000000
      7          1           0       -0.062531    2.074419    0.000000
 ---------------------------------------------------------------------

 SCF Done:  E(RPBE-PBE) =  -258.037767366     A.U. after    1 cycles

 The electronic state is 1-A'.
 Alpha  occ. eigenvalues --  -14.09240 -14.05282 -14.03547 -14.01034  -9.97090
 Alpha  occ. eigenvalues --   -1.05545  -0.87057  -0.81989  -0.62357  -0.60924
 Alpha  occ. eigenvalues --   -0.54532  -0.45367  -0.44933  -0.33183  -0.30030
 Alpha  occ. eigenvalues --   -0.28194  -0.26181  -0.24689
 Alpha virt. eigenvalues --   -0.06157  -0.02871  -0.00433   0.04001   0.11701
 Alpha virt. eigenvalues --    0.14530   0.18636   0.22363   0.27534   0.33696
 Alpha virt. eigenvalues --    0.35387   0.39029   0.44863   0.48009   0.51892

 Mulliken charges:
               1
     1  C    0.123050
     2  N   -0.415254
     3  N   -0.010929
     4  N   -0.089337
     5  N   -0.221485
     6  H    0.248382
     7  H    0.365574
 Sum of Mulliken charges =   0.00000

 Dipole moment (field-independent basis, Debye):
    X=              2.4202    Y=              4.7027    Z=              0.0000  Tot=              5.2889
 Quadrupole moment (field-independent basis, Debye-Ang):
   XX=            -28.9142   YY=            -26.3036   ZZ=            -28.4103
   XY=              1.7660   XZ=              0.0000   YZ=              0.0000

  Exact polarizability:  40.382   1.068  39.919   0.000   0.000  17.725
 Approx polarizability:  85.266   0.341  90.912   0.000   0.000  30.412

                      1                      2                      3
                     A"                     A"                     A"
 Frequencies --    581.7522               677.9402               719.0745
 Red. masses --      1.9587                 1.8238                 7.4681
 Frc consts  --      0.3906                 0.4939                 2.2751
 IR Inten    --     79.8802                12.4475                 8.6896

                      4                      5                      6
                     A"                     A'                     A'
 Frequencies --    802.7729               926.7968               975.8226
 Red. masses --      1.3587                 4.8698                 4.9427
 Frc consts  --      0.5159                 2.4645                 2.7730
 IR Inten    --     24.9188                 6.3306                 2.9524

                      7                      8                      9
                     A'                     A'                     A'
 Frequencies --   1000.4691              1027.7549              1112.9238
 Red. masses --      7.4476                 3.4087                 1.9420
 Frc consts  --      4.3921                 2.1214                 1.4172
 IR Inten    --     11.2927                25.8305                15.4242

                     10                     11                     12
                     A'                     A'                     A'
 Frequencies --   1214.8984              1233.0774              1413.9015
 Red. masses --      2.5795                 7.4620                 3.4110
 Frc consts  --      2.2432                 6.6847                 4.0177
 IR Inten    --     10.3734                 4.9530                 7.5657

                     13                     14                     15
                     A'                     A'                     A'
 Frequencies --   1458.4123              3210.4812              3565.8292
 Red. masses --      2.8811                 1.0999                 1.0829
 Frc consts  --      3.6105                 6.6792                 8.1127
 IR Inten    --     15.1224                 0.2770                50.1178

 - Thermochemistry -
 -------------------
 Temperature   298.150 Kelvin.  Pressure   1.00000 Atm.
 Atom     1 has atomic number  6 and mass  12.00000

 Molecular mass:    70.02795 amu.
 Principal axes and moments of inertia in atomic units:
                           1         2         3
     Eigenvalues --   173.31725 176.86587 350.18312
           X            0.85302   0.52188   0.00000
           Y           -0.52188   0.85302   0.00000
           Z            0.00000   0.00000   1.00000
 This molecule is an asymmetric top.
 Rotational symmetry number  1.
 Rotational temperatures (Kelvin)      0.49974     0.48971     0.24734
 Rotational constants (GHZ):          10.41293    10.20401     5.15371
 Zero-point vibrational energy     119159.5 (Joules/Mol)
                                   28.47980 (Kcal/Mol)
 Warning -- explicit consideration of   1 degrees of freedom as
           vibrations may cause significant error
 Vibrational temperatures:    837.01   975.40  1034.59  1155.01  1333.45
          (Kelvin)           1403.99  1439.45  1478.71  1601.25  1747.97
                             1774.12  2034.29  2098.33  4619.16  5130.43

 Zero-point correction=                           0.045385 (Hartree/Particle)
 Thermal correction to Energy=                    0.048919
 Thermal correction to Enthalpy=                  0.049863
 Thermal correction to Gibbs Free Energy=         0.019255
 Sum of electronic and zero-point Energies=           -257.992382
 Sum of electronic and thermal Energies=              -257.988848
 Sum of electronic and thermal Enthalpies=            -257.987904
 Sum of electronic and thermal Free Energies=         -258.018512

                     E (Thermal)             CV                S
                      KCal/Mol        Cal/Mol-Kelvin    Cal/Mol-Kelvin
 Total                   30.697             11.773             64.420
 Electronic               0.000              0.000              0.000
 Translational            0.889              2.981             38.656
 Rotational               0.889              2.981             23.888
 Vibrational             28.920              5.812              1.875
 Vibration     1          0.939              1.071              0.482

 Normal termination of Gaussian 09 at Wed Dec  4 12:06:19 2013.
