 Gaussian 09, Revision D.01,
 Gaussian 09:  EM64L-G09RevD.01 24-Apr-2013

 -----------------------------------------------------
 #PBEPBE/aug-cc-pVTZ integral(grid=ultrafine) opt freq
 -----------------------------------------------------

 -------------------------------------------------------------------
 1H-tetrazole CH2N4 casno=288948 state=1 config=1 method=69 basis=18
 -------------------------------------------------------------------
 Symbolic Z-matrix:
 Charge =  0 Multiplicity = 1

 SCF Done:  E(RPBE-PBE) =  -258.070727269     A.U. after   12 cycles
 SCF Done:  E(RPBE-PBE) =  -258.076264939     A.U. after   11 cycles
 SCF Done:  E(RPBE-PBE) =  -258.076430266     A.U. after   10 cycles
 SCF Done:  E(RPBE-PBE) =  -258.076448107     A.U. after    9 cycles
 SCF Done:  E(RPBE-PBE) =  -258.076458238     A.U. after    8 cycles
 SCF Done:  E(RPBE-PBE) =  -258.076459744     A.U. after    8 cycles
 Optimization completed.
    -- Stationary point found.
 Normal termination of Gaussian 09 at Mon Dec 16 15:08:37 2013.

 ----------------------------------------------------------------------
 #P Geom=AllCheck Guess=TCheck SCRF=Check GenChk RPBEPBE/Aug-CC-pVTZ Fr
 eq
 ----------------------------------------------------------------------

 Structure from the checkpoint file:  "/tmp/rdj3/g09-20196/Gau-24814.chk"
 -------------------------------------------------------------------
 1H-tetrazole CH2N4 casno=288948 state=1 config=1 method=69 basis=18
 -------------------------------------------------------------------
 Charge =  0 Multiplicity = 1

                         Standard orientation:
 ---------------------------------------------------------------------
 Center     Atomic      Atomic             Coordinates (Angstroms)
 Number     Number       Type             X           Y           Z
 ---------------------------------------------------------------------
      1          6           0        1.070825    0.237959    0.000000
      2          7           0        0.000000    1.057789    0.000000
      3          7           0       -1.126470    0.303442    0.000000
      4          7           0       -0.725207   -0.930995    0.000000
      5          7           0        0.641966   -1.011234    0.000000
      6          1           0        2.103405    0.568289    0.000000
      7          1           0       -0.060382    2.070954    0.000000
 ---------------------------------------------------------------------

 SCF Done:  E(RPBE-PBE) =  -258.076459744     A.U. after    1 cycles

 The electronic state is 1-A'.
 Alpha  occ. eigenvalues --  -14.10628 -14.07034 -14.05462 -14.02768  -9.98107
 Alpha  occ. eigenvalues --   -1.05965  -0.87470  -0.82416  -0.62660  -0.61449
 Alpha  occ. eigenvalues --   -0.54864  -0.45708  -0.45661  -0.33996  -0.30762
 Alpha  occ. eigenvalues --   -0.28833  -0.27029  -0.25624
 Alpha virt. eigenvalues --   -0.07016  -0.04006  -0.03938  -0.00399   0.02039
 Alpha virt. eigenvalues --    0.02514   0.04111   0.04898   0.05763   0.06648
 Alpha virt. eigenvalues --    0.07685   0.08006   0.09224   0.10095   0.11467

 Mulliken charges:
               1
     1  C   -0.153320
     2  N    0.230047
     3  N   -0.307040
     4  N   -0.164493
     5  N   -0.233105
     6  H    0.500217
     7  H    0.127695
 Sum of Mulliken charges =   0.00000

 Dipole moment (field-independent basis, Debye):
    X=              2.4367    Y=              4.6420    Z=              0.0000  Tot=              5.2426
 Quadrupole moment (field-independent basis, Debye-Ang):
   XX=            -29.4137   YY=            -26.8430   ZZ=            -28.7961
   XY=              1.8455   XZ=              0.0000   YZ=              0.0000

  Exact polarizability:  48.208   0.589  47.813   0.000   0.000  27.325
 Approx polarizability:  95.508   0.382 100.850   0.000   0.000  45.766

                      1                      2                      3
                     A"                     A"                     A"
 Frequencies --    576.9498               672.9018               720.9404
 Red. masses --      1.7027                 2.0083                 8.2613
 Frc consts  --      0.3339                 0.5358                 2.5299
 IR Inten    --     73.0955                 6.2629                 7.3468

                      4                      5                      6
                     A"                     A'                     A'
 Frequencies --    824.3001               923.2886               970.6551
 Red. masses --      1.3841                 5.0020                 4.8263
 Frc consts  --      0.5541                 2.5123                 2.6792
 IR Inten    --     19.4683                 5.7502                 2.5640

                      7                      8                      9
                     A'                     A'                     A'
 Frequencies --    995.8457              1019.3554              1108.6149
 Red. masses --      7.4121                 3.2310                 1.9425
 Frc consts  --      4.3309                 1.9780                 1.4066
 IR Inten    --     10.3787                25.4615                14.4296

                     10                     11                     12
                     A'                     A'                     A'
 Frequencies --   1205.7709              1230.1981              1401.2956
 Red. masses --      2.4857                 7.2552                 3.2109
 Frc consts  --      2.1292                 6.4692                 3.7148
 IR Inten    --      8.7114                 3.6948                 7.9107

                     13                     14                     15
                     A'                     A'                     A'
 Frequencies --   1443.2044              3203.5148              3547.5044
 Red. masses --      3.3968                 1.0999                 1.0831
 Frc consts  --      4.1685                 6.6506                 8.0306
 IR Inten    --     13.3253                 1.3481                66.9886

 - Thermochemistry -
 -------------------
 Temperature   298.150 Kelvin.  Pressure   1.00000 Atm.
 Atom     1 has atomic number  6 and mass  12.00000

 Molecular mass:    70.02795 amu.
 Principal axes and moments of inertia in atomic units:
                           1         2         3
     Eigenvalues --   172.96842 175.96687 348.93529
           X            0.86765   0.49717   0.00000
           Y           -0.49717   0.86765   0.00000
           Z            0.00000   0.00000   1.00000
 This molecule is an asymmetric top.
 Rotational symmetry number  1.
 Rotational temperatures (Kelvin)      0.50075     0.49222     0.24822
 Rotational constants (GHZ):          10.43393    10.25614     5.17214
 Zero-point vibrational energy     118695.5 (Joules/Mol)
                                   28.36891 (Kcal/Mol)
 Warning -- explicit consideration of   1 degrees of freedom as
           vibrations may cause significant error
 Vibrational temperatures:    830.10   968.15  1037.27  1185.98  1328.40
          (Kelvin)           1396.55  1432.80  1466.62  1595.05  1734.83
                             1769.98  2016.15  2076.45  4609.14  5104.06

 Zero-point correction=                           0.045209 (Hartree/Particle)
 Thermal correction to Energy=                    0.048746
 Thermal correction to Enthalpy=                  0.049690
 Thermal correction to Gibbs Free Energy=         0.019082
 Sum of electronic and zero-point Energies=           -258.031251
 Sum of electronic and thermal Energies=              -258.027714
 Sum of electronic and thermal Enthalpies=            -258.026770
 Sum of electronic and thermal Free Energies=         -258.057377

                     E (Thermal)             CV                S
                      KCal/Mol        Cal/Mol-Kelvin    Cal/Mol-Kelvin
 Total                   30.588             11.800             64.419
 Electronic               0.000              0.000              0.000
 Translational            0.889              2.981             38.656
 Rotational               0.889              2.981             23.878
 Vibrational             28.811              5.839              1.886
 Vibration     1          0.933              1.081              0.491

 Optimization completed.
    -- Stationary point found.
 Normal termination of Gaussian 09 at Mon Dec 16 15:13:31 2013.
