 Gaussian 09, Revision D.01,
 Gaussian 09:  EM64L-G09RevD.01 24-Apr-2013

 ----------------------------------------------------------
 #PBEPBE/cc-pVDZ integral(grid=ultrafine) opt=z-matrix freq
 ----------------------------------------------------------

 ------------------------------------------------------------------
 1H-tetrazole CH2N4 casno=288948 state=1 config=1 method=69 basis=5
 ------------------------------------------------------------------
 Symbolic Z-matrix:
 Charge =  0 Multiplicity = 1

 SCF Done:  E(RPBE-PBE) =  -257.993045244     A.U. after   15 cycles
 SCF Done:  E(RPBE-PBE) =  -258.001052473     A.U. after   13 cycles
 SCF Done:  E(RPBE-PBE) =  -258.001247754     A.U. after   12 cycles
 SCF Done:  E(RPBE-PBE) =  -258.001244577     A.U. after   11 cycles
 SCF Done:  E(RPBE-PBE) =  -258.001256617     A.U. after    8 cycles
 SCF Done:  E(RPBE-PBE) =  -258.001265087     A.U. after    9 cycles
 SCF Done:  E(RPBE-PBE) =  -258.001069046     A.U. after   12 cycles
 SCF Done:  E(RPBE-PBE) =  -258.001266141     A.U. after    9 cycles
 SCF Done:  E(RPBE-PBE) =  -258.001266420     A.U. after    8 cycles
 SCF Done:  E(RPBE-PBE) =  -258.001266477     A.U. after    8 cycles
 SCF Done:  E(RPBE-PBE) =  -258.001266613     A.U. after    8 cycles
 SCF Done:  E(RPBE-PBE) =  -258.001266243     A.U. after    8 cycles
 SCF Done:  E(RPBE-PBE) =  -258.001266615     A.U. after    5 cycles
 SCF Done:  E(RPBE-PBE) =  -258.001266617     A.U. after    7 cycles
 Optimization completed.
    -- Stationary point found.
 Normal termination of Gaussian 09 at Wed Dec  4 11:58:40 2013.

 --------------------------------------------------------------------
 #P Geom=AllCheck Guess=TCheck SCRF=Check GenChk RPBEPBE/CC-pVDZ Freq
 --------------------------------------------------------------------

 Structure from the checkpoint file:  "/tmp/rdj3/g09-16643/Gau-8142.chk"
 ------------------------------------------------------------------
 1H-tetrazole CH2N4 casno=288948 state=1 config=1 method=69 basis=5
 ------------------------------------------------------------------
 Charge =  0 Multiplicity = 1

                         Standard orientation:
 ---------------------------------------------------------------------
 Center     Atomic      Atomic             Coordinates (Angstroms)
 Number     Number       Type             X           Y           Z
 ---------------------------------------------------------------------
      1          6           0        1.074711    0.235736    0.000000
      2          7           0        0.000000    1.062159    0.000000
      3          7           0       -1.130090    0.308035    0.000000
      4          7           0       -0.727143   -0.932062    0.000000
      5          7           0        0.641714   -1.019130    0.000000
      6          1           0        2.116400    0.569696    0.000000
      7          1           0       -0.056033    2.082867    0.000000
 ---------------------------------------------------------------------

 SCF Done:  E(RPBE-PBE) =  -258.001266617     A.U. after    1 cycles

 The electronic state is 1-A'.
 Alpha  occ. eigenvalues --  -14.10728 -14.06506 -14.04797 -14.02472  -9.98327
 Alpha  occ. eigenvalues --   -1.04695  -0.86367  -0.81183  -0.61495  -0.60182
 Alpha  occ. eigenvalues --   -0.53537  -0.44496  -0.44195  -0.32415  -0.29367
 Alpha  occ. eigenvalues --   -0.27450  -0.25502  -0.23988
 Alpha virt. eigenvalues --   -0.05565  -0.02287   0.00901   0.05312   0.13018
 Alpha virt. eigenvalues --    0.15493   0.22181   0.24598   0.32621   0.37822
 Alpha virt. eigenvalues --    0.42236   0.48612   0.51209   0.52243   0.61191

 Mulliken charges:
               1
     1  C    0.187398
     2  N   -0.027675
     3  N   -0.070913
     4  N   -0.089298
     5  N   -0.172159
     6  H    0.054409
     7  H    0.118237
 Sum of Mulliken charges =   0.00000

 Dipole moment (field-independent basis, Debye):
    X=              2.2955    Y=              4.5296    Z=              0.0000  Tot=              5.0780
 Quadrupole moment (field-independent basis, Debye-Ang):
   XX=            -28.6078   YY=            -25.9141   ZZ=            -27.9768
   XY=              1.6663   XZ=              0.0000   YZ=              0.0000

  Exact polarizability:  39.445   1.225  38.650   0.000   0.000  16.309
 Approx polarizability:  85.452   0.588  90.590   0.000   0.000  28.687

                      1                      2                      3
                     A"                     A"                     A"
 Frequencies --    565.8468               671.9396               719.4632
 Red. masses --      1.7677                 2.0012                 7.6028
 Frc consts  --      0.3335                 0.5324                 2.3187
 IR Inten    --     66.9698                 6.7490                 7.7713

                      4                      5                      6
                     A"                     A'                     A'
 Frequencies --    807.2327               928.9803               969.6356
 Red. masses --      1.3680                 3.8586                 4.5250
 Frc consts  --      0.5252                 1.9620                 2.5066
 IR Inten    --     20.4154                 4.0027                 2.3718

                      7                      8                      9
                     A'                     A'                     A'
 Frequencies --   1012.9798              1023.8254              1104.7725
 Red. masses --      4.7385                 3.6174                 2.0501
 Frc consts  --      2.8648                 2.2341                 1.4743
 IR Inten    --     17.9959                22.3293                14.2986

                     10                     11                     12
                     A'                     A'                     A'
 Frequencies --   1204.3509              1237.3317              1406.6730
 Red. masses --      2.4060                10.6598                 3.3447
 Frc consts  --      2.0562                 9.6155                 3.8993
 IR Inten    --      6.3402                 7.6667                 6.8600

                     13                     14                     15
                     A'                     A'                     A'
 Frequencies --   1444.5285              3215.4776              3531.9023
 Red. masses --      4.0120                 1.1003                 1.0840
 Frc consts  --      4.9325                 6.7025                 7.9670
 IR Inten    --     11.0833                 1.2962                63.8659

 - Thermochemistry -
 -------------------
 Temperature   298.150 Kelvin.  Pressure   1.00000 Atm.
 Atom     1 has atomic number  6 and mass  12.00000

 Molecular mass:    70.02795 amu.
 Principal axes and moments of inertia in atomic units:
                           1         2         3
     Eigenvalues --   174.04441 177.61298 351.65739
           X            0.79642   0.60474   0.00000
           Y           -0.60474   0.79642   0.00000
           Z            0.00000   0.00000   1.00000
 This molecule is an asymmetric top.
 Rotational symmetry number  1.
 Rotational temperatures (Kelvin)      0.49765     0.48765     0.24630
 Rotational constants (GHZ):          10.36943    10.16109     5.13210
 Zero-point vibrational energy     118699.1 (Joules/Mol)
                                   28.36977 (Kcal/Mol)
 Warning -- explicit consideration of   1 degrees of freedom as
           vibrations may cause significant error
 Vibrational temperatures:    814.13   966.77  1035.15  1161.43  1336.59
          (Kelvin)           1395.09  1457.45  1473.05  1589.52  1732.79
                             1780.24  2023.89  2078.35  4626.35  5081.61

 Zero-point correction=                           0.045210 (Hartree/Particle)
 Thermal correction to Energy=                    0.048756
 Thermal correction to Enthalpy=                  0.049700
 Thermal correction to Gibbs Free Energy=         0.019068
 Sum of electronic and zero-point Energies=           -257.956057
 Sum of electronic and thermal Energies=              -257.952511
 Sum of electronic and thermal Enthalpies=            -257.951567
 Sum of electronic and thermal Free Energies=         -257.982198

                     E (Thermal)             CV                S
                      KCal/Mol        Cal/Mol-Kelvin    Cal/Mol-Kelvin
 Total                   30.595             11.824             64.469
 Electronic               0.000              0.000              0.000
 Translational            0.889              2.981             38.656
 Rotational               0.889              2.981             23.901
 Vibrational             28.817              5.863              1.912
 Vibration     1          0.922              1.105              0.512

 Normal termination of Gaussian 09 at Wed Dec  4 11:58:55 2013.
