 Gaussian 09, Revision D.01,
 Gaussian 09:  EM64L-G09RevD.01 24-Apr-2013

 -------------------------------------------
 #CCD/6-31G(2df,p) opt=z-matrix freq density
 -------------------------------------------

 ------------------------------------------------------------------
 1H-tetrazole CH2N4 casno=288948 state=1 config=1 method=6 basis=19
 ------------------------------------------------------------------
 Symbolic Z-matrix:
 Charge =  0 Multiplicity = 1

 SCF Done:  E(RHF) =  -256.781975392     A.U. after   14 cycles
 E2 =    -0.9064718141D+00 EUMP2 =    -0.25768844720572D+03
 SCF Done:  E(RHF) =  -256.779026777     A.U. after   12 cycles
 E2 =    -0.9140314790D+00 EUMP2 =    -0.25769305825582D+03
 SCF Done:  E(RHF) =  -256.778629260     A.U. after   10 cycles
 E2 =    -0.9147236254D+00 EUMP2 =    -0.25769335288557D+03
 SCF Done:  E(RHF) =  -256.778708010     A.U. after   11 cycles
 E2 =    -0.9145629692D+00 EUMP2 =    -0.25769327097943D+03
 SCF Done:  E(RHF) =  -256.778516110     A.U. after    9 cycles
 E2 =    -0.9149431731D+00 EUMP2 =    -0.25769345928352D+03
 SCF Done:  E(RHF) =  -256.778578342     A.U. after   11 cycles
 E2 =    -0.9148926199D+00 EUMP2 =    -0.25769347096156D+03
 SCF Done:  E(RHF) =  -256.778536745     A.U. after    9 cycles
 E2 =    -0.9149195992D+00 EUMP2 =    -0.25769345634428D+03
 SCF Done:  E(RHF) =  -256.778467310     A.U. after   11 cycles
 E2 =    -0.9150128631D+00 EUMP2 =    -0.25769348017279D+03
 SCF Done:  E(RHF) =  -256.778550993     A.U. after    8 cycles
 E2 =    -0.9149025944D+00 EUMP2 =    -0.25769345358772D+03
 SCF Done:  E(RHF) =  -256.778571879     A.U. after   10 cycles
 E2 =    -0.9148731773D+00 EUMP2 =    -0.25769344505617D+03
 E2 =    -0.9148975868D+00 EUMP2 =    -0.25769345251103D+03
 Optimization completed.
    -- Stationary point found.
 Normal termination of Gaussian 09 at Tue Dec 10 01:17:26 2013.

 ----------------------------------------------------------------------
 #N Geom=AllCheck Guess=TCheck SCRF=Check GenChk RCCD(FC)/6-31G(2df,p)
 Freq
 ----------------------------------------------------------------------

 Structure from the checkpoint file:  "/tmp/rdj3/g09-31683/Gau-7574.chk"
 ------------------------------------------------------------------
 1H-tetrazole CH2N4 casno=288948 state=1 config=1 method=6 basis=19
 ------------------------------------------------------------------
 Charge =  0 Multiplicity = 1

                         Standard orientation:
 ---------------------------------------------------------------------
 Center     Atomic      Atomic             Coordinates (Angstroms)
 Number     Number       Type             X           Y           Z
 ---------------------------------------------------------------------
      1          6           0        1.062274    0.231961    0.000000
      2          7           0        0.000000    1.049865    0.000000
      3          7           0       -1.111844    0.304872    0.000000
      4          7           0       -0.722051   -0.921171    0.000000
      5          7           0        0.633959   -1.005398    0.000000
      6          1           0        2.086781    0.558964    0.000000
      7          1           0       -0.060874    2.052098    0.000000
 ---------------------------------------------------------------------

 E2 =    -0.9148975826D+00 EUMP2 =    -0.25769345250682D+03
 E2 =    -0.9149473232D+00 EUMP2 =    -0.25769346648956D+03
 E2 =    -0.9148480885D+00 EUMP2 =    -0.25769343520774D+03
 E2 =    -0.9149412255D+00 EUMP2 =    -0.25769346931360D+03
 E2 =    -0.9148539954D+00 EUMP2 =    -0.25769343319024D+03
 E2 =    -0.9148976964D+00 EUMP2 =    -0.25769345227333D+03
 E2 =    -0.9149055396D+00 EUMP2 =    -0.25769345362543D+03
 E2 =    -0.9148897655D+00 EUMP2 =    -0.25769344919698D+03
 E2 =    -0.9149155126D+00 EUMP2 =    -0.25769345215134D+03
 E2 =    -0.9148921041D+00 EUMP2 =    -0.25769345941130D+03
 E2 =    -0.9149031908D+00 EUMP2 =    -0.25769344399423D+03
 E2 =    -0.9147703451D+00 EUMP2 =    -0.25769340815801D+03
 E2 =    -0.9150250308D+00 EUMP2 =    -0.25769349469182D+03
 E2 =    -0.9148976745D+00 EUMP2 =    -0.25769345230150D+03
 E2 =    -0.9149212417D+00 EUMP2 =    -0.25769345051030D+03
 E2 =    -0.9148740354D+00 EUMP2 =    -0.25769345302353D+03
 E2 =    -0.9148192690D+00 EUMP2 =    -0.25769342717912D+03
 E2 =    -0.9149760511D+00 EUMP2 =    -0.25769347556550D+03
 E2 =    -0.9148976534D+00 EUMP2 =    -0.25769345232311D+03
 SCF Done:  E(RHF) =  -256.778544063     A.U. after    7 cycles
 E2 =    -0.9149083392D+00 EUMP2 =    -0.25769345240179D+03
 SCF Done:  E(RHF) =  -256.778564469     A.U. after    7 cycles
 E2 =    -0.9148868746D+00 EUMP2 =    -0.25769345134337D+03
 SCF Done:  E(RHF) =  -256.778550933     A.U. after    7 cycles
 E2 =    -0.9149020529D+00 EUMP2 =    -0.25769345298580D+03
 SCF Done:  E(RHF) =  -256.778558582     A.U. after    8 cycles
 E2 =    -0.9148931565D+00 EUMP2 =    -0.25769345173822D+03
 SCF Done:  E(RHF) =  -256.778554866     A.U. after    6 cycles
 E2 =    -0.9148976051D+00 EUMP2 =    -0.25769345247089D+03
 SCF Done:  E(RHF) =  -256.778557404     A.U. after    6 cycles
 E2 =    -0.9148939266D+00 EUMP2 =    -0.25769345133042D+03
 SCF Done:  E(RHF) =  -256.778552169     A.U. after    7 cycles
 E2 =    -0.9149013142D+00 EUMP2 =    -0.25769345348337D+03
 SCF Done:  E(RHF) =  -256.778530312     A.U. after    7 cycles
 E2 =    -0.9149280699D+00 EUMP2 =    -0.25769345838218D+03
 SCF Done:  E(RHF) =  -256.778577743     A.U. after    7 cycles
 E2 =    -0.9148671135D+00 EUMP2 =    -0.25769344485636D+03
 SCF Done:  E(RHF) =  -256.778554887     A.U. after    6 cycles
 E2 =    -0.9148976011D+00 EUMP2 =    -0.25769345248792D+03

 Alpha  occ. eigenvalues --  -15.68156 -15.66089 -15.64451 -15.60231 -11.33700
 Alpha  occ. eigenvalues --   -1.49310  -1.25357  -1.19052  -0.90367  -0.88598
 Alpha  occ. eigenvalues --   -0.79605  -0.67485  -0.67231  -0.56401  -0.47343
 Alpha  occ. eigenvalues --   -0.46633  -0.45118  -0.41369
 Alpha virt. eigenvalues --    0.14563   0.19277   0.19918   0.25449   0.35702
 Alpha virt. eigenvalues --    0.38209   0.43129   0.46289   0.58855   0.64607
 Alpha virt. eigenvalues --    0.65545   0.67232   0.72766   0.75482   0.76662

 Mulliken charges:
               1
     1  C    0.043360
     2  N   -0.245117
     3  N   -0.050854
     4  N   -0.080767
     5  N   -0.200516
     6  H    0.199928
     7  H    0.333966
 Sum of Mulliken charges =   0.00000

 Dipole moment (field-independent basis, Debye):
    X=              2.4809    Y=              4.7436    Z=              0.0016  Tot=              5.3532
 Quadrupole moment (field-independent basis, Debye-Ang):
   XX=            -28.6226   YY=            -26.0723   ZZ=            -28.2973
   XY=              1.8136   XZ=             -0.0001   YZ=              0.0038

                      1                      2                      3
                     A"                     A"                     A"
 Frequencies --    600.0563               706.0640               755.6456
 Red. masses --      1.7850                 2.0254                 7.4923
 Frc consts  --      0.3787                 0.5949                 2.5206
 IR Inten    --     83.0307                 8.7907                 9.8019

                      4                      5                      6
                     A"                     A'                     A'
 Frequencies --    898.4907              1002.5730              1036.4909
 Red. masses --      1.3491                 4.7585                 6.2967
 Frc consts  --      0.6417                 2.8181                 3.9856
 IR Inten    --     13.4184                 2.2096                 2.7922

                      7                      8                      9
                     A'                     A'                     A'
 Frequencies --   1108.6693              1132.1523              1182.2904
 Red. masses --      5.5449                 2.5523                 1.8872
 Frc consts  --      4.0156                 1.9275                 1.5543
 IR Inten    --     20.4122                27.5918                10.1268

                     10                     11                     12
                     A'                     A'                     A'
 Frequencies --   1316.4320              1352.5988              1519.8267
 Red. masses --      2.9955                 8.6522                 3.0151
 Frc consts  --      3.0585                 9.3264                 4.1034
 IR Inten    --      0.1244                15.6683                17.6807

                     13                     14                     15
                     A'                     A'                     A'
 Frequencies --   1560.6028              3346.6657              3748.2833
 Red. masses --      3.8053                 1.1020                 1.0840
 Frc consts  --      5.4604                 7.2718                 8.9735
 IR Inten    --     17.4260                 2.0161               122.7771

 - Thermochemistry -
 -------------------
 Temperature   298.150 Kelvin.  Pressure   1.00000 Atm.
 Atom     1 has atomic number  6 and mass  12.00000

 Molecular mass:    70.02795 amu.
 Principal axes and moments of inertia in atomic units:
                           1         2         3
     Eigenvalues --   169.82739 172.98201 342.80939
           X            0.79493   0.60670   0.00000
           Y           -0.60670   0.79493   0.00000
           Z            0.00000   0.00000   1.00000
 This molecule is an asymmetric top.
 Rotational symmetry number  1.
 Rotational temperatures (Kelvin)      0.51001     0.50071     0.25266
 Rotational constants (GHZ):          10.62692    10.43312     5.26456
 Zero-point vibrational energy     127204.0 (Joules/Mol)
                                   30.40248 (Kcal/Mol)
 Warning -- explicit consideration of   1 degrees of freedom as
           vibrations may cause significant error
 Vibrational temperatures:    863.35  1015.87  1087.20  1292.73  1442.48
          (Kelvin)           1491.28  1595.13  1628.91  1701.05  1894.05
                             1946.09  2186.69  2245.36  4815.10  5392.94

 Zero-point correction=                           0.048449 (Hartree/Particle)
 Thermal correction to Energy=                    0.051859
 Thermal correction to Enthalpy=                  0.052803
 Thermal correction to Gibbs Free Energy=         0.022387
 Sum of electronic and zero-point Energies=           -257.639773
 Sum of electronic and thermal Energies=              -257.636363
 Sum of electronic and thermal Enthalpies=            -257.635419
 Sum of electronic and thermal Free Energies=         -257.665835

                     E (Thermal)             CV                S
                      KCal/Mol        Cal/Mol-Kelvin    Cal/Mol-Kelvin
 Total                   32.542             10.891             64.017
 Electronic               0.000              0.000              0.000
 Translational            0.889              2.981             38.656
 Rotational               0.889              2.981             23.825
 Vibrational             30.765              4.929              1.536
 Vibration     1          0.958              1.032              0.450

 Optimization completed.
    -- Stationary point found.
 Normal termination of Gaussian 09 at Tue Dec 10 09:10:29 2013.
