 Gaussian 09, Revision D.01,
 Gaussian 09:  EM64L-G09RevD.01 24-Apr-2013

 ----------------------------
 #CCD/6-31G* opt freq density
 ----------------------------

 -----------------------------------------------------------------
 1H-tetrazole CH2N4 casno=288948 state=1 config=1 method=6 basis=1
 -----------------------------------------------------------------
 Symbolic Z-matrix:
 Charge =  0 Multiplicity = 1

 SCF Done:  E(RHF) =  -256.754076285     A.U. after   15 cycles
 E2 =    -0.7737063668D+00 EUMP2 =    -0.25752778265216D+03
 SCF Done:  E(RHF) =  -256.749776645     A.U. after   13 cycles
 E2 =    -0.7847923969D+00 EUMP2 =    -0.25753456904163D+03
 SCF Done:  E(RHF) =  -256.749233746     A.U. after   12 cycles
 E2 =    -0.7856506401D+00 EUMP2 =    -0.25753488438624D+03
 SCF Done:  E(RHF) =  -256.749033376     A.U. after   11 cycles
 E2 =    -0.7859732191D+00 EUMP2 =    -0.25753500659473D+03
 SCF Done:  E(RHF) =  -256.749165028     A.U. after   10 cycles
 E2 =    -0.7858111861D+00 EUMP2 =    -0.25753497621440D+03
 Optimization completed.
    -- Stationary point found.
 Normal termination of Gaussian 09 at Wed Dec 18 15:14:27 2013.

 ----------------------------------------------------------------------
 #N Geom=AllCheck Guess=TCheck SCRF=Check GenChk RCCD(FC)/6-31G(d) Freq
 ----------------------------------------------------------------------

 Structure from the checkpoint file:  "/tmp/rdj3/g09-13683/Gau-32488.chk"
 -----------------------------------------------------------------
 1H-tetrazole CH2N4 casno=288948 state=1 config=1 method=6 basis=1
 -----------------------------------------------------------------
 Charge =  0 Multiplicity = 1

                         Standard orientation:
 ---------------------------------------------------------------------
 Center     Atomic      Atomic             Coordinates (Angstroms)
 Number     Number       Type             X           Y           Z
 ---------------------------------------------------------------------
      1          6           0        1.067417    0.234046    0.000000
      2          7           0        0.000000    1.053593    0.000000
      3          7           0       -1.118993    0.305557    0.000000
      4          7           0       -0.725148   -0.926767    0.000000
      5          7           0        0.638590   -1.007784    0.000000
      6          1           0        2.097390    0.560605    0.000000
      7          1           0       -0.063035    2.062924    0.000000
 ---------------------------------------------------------------------

 SCF Done:  E(RHF) =  -256.749165028     A.U. after    1 cycles
 E2 =    -0.7858111842D+00 EUMP2 =    -0.25753497621247D+03
 SCF Done:  E(RHF) =  -256.749129338     A.U. after    9 cycles
 E2 =    -0.7858612504D+00 EUMP2 =    -0.25753499058818D+03
 SCF Done:  E(RHF) =  -256.749197165     A.U. after   10 cycles
 E2 =    -0.7857613321D+00 EUMP2 =    -0.25753495849685D+03
 SCF Done:  E(RHF) =  -256.749136844     A.U. after   10 cycles
 E2 =    -0.7858554958D+00 EUMP2 =    -0.25753499234007D+03
 SCF Done:  E(RHF) =  -256.749190648     A.U. after   11 cycles
 E2 =    -0.7857668830D+00 EUMP2 =    -0.25753495753149D+03
 E2 =    -0.7858113055D+00 EUMP2 =    -0.25753497598596D+03
 E2 =    -0.7858227363D+00 EUMP2 =    -0.25753497790729D+03
 E2 =    -0.7857997099D+00 EUMP2 =    -0.25753497228007D+03
 E2 =    -0.7858322023D+00 EUMP2 =    -0.25753497718937D+03
 E2 =    -0.7857903628D+00 EUMP2 =    -0.25753497150867D+03
 E2 =    -0.7858112423D+00 EUMP2 =    -0.25753497605110D+03
 E2 =    -0.7857172675D+00 EUMP2 =    -0.25753495221796D+03
 E2 =    -0.7859052797D+00 EUMP2 =    -0.25753499822478D+03
 E2 =    -0.7859237405D+00 EUMP2 =    -0.25753501261592D+03
 E2 =    -0.7856986753D+00 EUMP2 =    -0.25753493790287D+03
 E2 =    -0.7857982209D+00 EUMP2 =    -0.25753498316000D+03
 E2 =    -0.7858242484D+00 EUMP2 =    -0.25753496767833D+03
 E2 =    -0.7856758791D+00 EUMP2 =    -0.25753493489566D+03
 E2 =    -0.7859466575D+00 EUMP2 =    -0.25753501537513D+03
 E2 =    -0.7858112728D+00 EUMP2 =    -0.25753497600185D+03
 E2 =    -0.7858436459D+00 EUMP2 =    -0.25753497395662D+03
 E2 =    -0.7857787913D+00 EUMP2 =    -0.25753497698778D+03
 E2 =    -0.7857277007D+00 EUMP2 =    -0.25753495331224D+03
 E2 =    -0.7858947903D+00 EUMP2 =    -0.25753499681562D+03
 E2 =    -0.7858112521D+00 EUMP2 =    -0.25753497602341D+03
 SCF Done:  E(RHF) =  -256.749146116     A.U. after    7 cycles
 E2 =    -0.7858280783D+00 EUMP2 =    -0.25753497419380D+03
 SCF Done:  E(RHF) =  -256.749182624     A.U. after    8 cycles
 E2 =    -0.7857943180D+00 EUMP2 =    -0.25753497694166D+03
 SCF Done:  E(RHF) =  -256.749159046     A.U. after    8 cycles
 E2 =    -0.7858169975D+00 EUMP2 =    -0.25753497604330D+03
 SCF Done:  E(RHF) =  -256.749170673     A.U. after    9 cycles
 E2 =    -0.7858053955D+00 EUMP2 =    -0.25753497606806D+03
 SCF Done:  E(RHF) =  -256.749164967     A.U. after    7 cycles
 E2 =    -0.7858112020D+00 EUMP2 =    -0.25753497616919D+03
 SCF Done:  E(RHF) =  -256.749167939     A.U. after    7 cycles
 E2 =    -0.7858074302D+00 EUMP2 =    -0.25753497536946D+03
 SCF Done:  E(RHF) =  -256.749161834     A.U. after    8 cycles
 E2 =    -0.7858150001D+00 EUMP2 =    -0.25753497683420D+03
 SCF Done:  E(RHF) =  -256.749133183     A.U. after    7 cycles
 E2 =    -0.7858465830D+00 EUMP2 =    -0.25753497976607D+03
 SCF Done:  E(RHF) =  -256.749195127     A.U. after    8 cycles
 E2 =    -0.7857758096D+00 EUMP2 =    -0.25753497093633D+03
 SCF Done:  E(RHF) =  -256.749164988     A.U. after    6 cycles
 E2 =    -0.7858111965D+00 EUMP2 =    -0.25753497618420D+03

 Alpha  occ. eigenvalues --  -15.68993 -15.66914 -15.65124 -15.60875 -11.34224
 Alpha  occ. eigenvalues --   -1.49362  -1.25526  -1.19452  -0.90616  -0.88877
 Alpha  occ. eigenvalues --   -0.79884  -0.67530  -0.67427  -0.56688  -0.47727
 Alpha  occ. eigenvalues --   -0.47071  -0.45301  -0.41700
 Alpha virt. eigenvalues --    0.13950   0.18835   0.19632   0.25093   0.36766
 Alpha virt. eigenvalues --    0.38191   0.47494   0.49951   0.64777   0.73676
 Alpha virt. eigenvalues --    0.73902   0.82416   0.82712   0.89528   0.91792

 Mulliken charges:
               1
     1  C    0.230809
     2  N   -0.464337
     3  N   -0.027543
     4  N   -0.081603
     5  N   -0.297821
     6  H    0.233683
     7  H    0.406813
 Sum of Mulliken charges =   0.00000

 Dipole moment (field-independent basis, Debye):
    X=              2.5492    Y=              4.8972    Z=              0.0018  Tot=              5.5209
 Quadrupole moment (field-independent basis, Debye-Ang):
   XX=            -28.9955   YY=            -26.4716   ZZ=            -28.5533
   XY=              1.8647   XZ=             -0.0001   YZ=              0.0041

                      1                      2                      3
                     A"                     A"                     A"
 Frequencies --    579.4585               699.6848               745.8160
 Red. masses --      1.8640                 1.9936                 7.2388
 Frc consts  --      0.3688                 0.5750                 2.3724
 IR Inten    --     99.9822                11.1171                10.6721

                      4                      5                      6
                     A"                     A'                     A'
 Frequencies --    862.5423               997.9288              1033.4741
 Red. masses --      1.3291                 5.0269                 6.8878
 Frc consts  --      0.5826                 2.9495                 4.3344
 IR Inten    --     21.7717                 1.8844                 1.6849

                      7                      8                      9
                     A'                     A'                     A'
 Frequencies --   1103.0029              1128.9835              1185.5048
 Red. masses --      6.1133                 2.6138                 1.7467
 Frc consts  --      4.3821                 1.9629                 1.4464
 IR Inten    --     21.7527                27.1688                11.9600

                     10                     11                     12
                     A'                     A'                     A'
 Frequencies --   1319.1160              1348.3659              1529.1793
 Red. masses --      2.9465                 8.0946                 2.9852
 Frc consts  --      3.0208                 8.6708                 4.1128
 IR Inten    --      0.2355                17.7371                20.6348

                     13                     14                     15
                     A'                     A'                     A'
 Frequencies --   1566.6726              3335.5954              3698.5167
 Red. masses --      3.9255                 1.1024                 1.0844
 Frc consts  --      5.6768                 7.2263                 8.7398
 IR Inten    --     18.2655                 0.9419               113.4336

 - Thermochemistry -
 -------------------
 Temperature   298.150 Kelvin.  Pressure   1.00000 Atm.
 Atom     1 has atomic number  6 and mass  12.00000

 Molecular mass:    70.02795 amu.
 Principal axes and moments of inertia in atomic units:
                           1         2         3
     Eigenvalues --   171.43396 174.69569 346.12964
           X            0.84546   0.53403   0.00000
           Y           -0.53403   0.84546   0.00000
           Z            0.00000   0.00000   1.00000
 This molecule is an asymmetric top.
 Rotational symmetry number  1.
 Rotational temperatures (Kelvin)      0.50523     0.49580     0.25024
 Rotational constants (GHZ):          10.52733    10.33077     5.21406
 Zero-point vibrational energy     126408.4 (Joules/Mol)
                                   30.21234 (Kcal/Mol)
 Warning -- explicit consideration of   1 degrees of freedom as
           vibrations may cause significant error
 Vibrational temperatures:    833.71  1006.69  1073.06  1241.00  1435.80
          (Kelvin)           1486.94  1586.97  1624.35  1705.67  1897.91
                             1940.00  2200.15  2254.09  4799.17  5321.33

 Zero-point correction=                           0.048146 (Hartree/Particle)
 Thermal correction to Energy=                    0.051583
 Thermal correction to Enthalpy=                  0.052527
 Thermal correction to Gibbs Free Energy=         0.022059
 Sum of electronic and zero-point Energies=           -257.485964
 Sum of electronic and thermal Energies=              -257.482528
 Sum of electronic and thermal Enthalpies=            -257.481584
 Sum of electronic and thermal Free Energies=         -257.512051

                     E (Thermal)             CV                S
                      KCal/Mol        Cal/Mol-Kelvin    Cal/Mol-Kelvin
 Total                   32.369             11.026             64.124
 Electronic               0.000              0.000              0.000
 Translational            0.889              2.981             38.656
 Rotational               0.889              2.981             23.854
 Vibrational             30.591              5.064              1.615
 Vibration     1          0.936              1.076              0.486

 Optimization completed.
    -- Stationary point found.
 Normal termination of Gaussian 09 at Wed Dec 18 16:00:22 2013.
