 Gaussian 09, Revision D.01,
 Gaussian 09:  EM64L-G09RevD.01 24-Apr-2013

 ---------------------------------
 #CCD/6-311G(d,p) opt freq density
 ---------------------------------

 ------------------------------------------------------------------
 1H-tetrazole CH2N4 casno=288948 state=1 config=1 method=6 basis=21
 ------------------------------------------------------------------
 Symbolic Z-matrix:
 Charge =  0 Multiplicity = 1

 SCF Done:  E(RHF) =  -256.816035151     A.U. after   14 cycles
 E2 =    -0.8205367116D+00 EUMP2 =    -0.25763657186277D+03
 SCF Done:  E(RHF) =  -256.812543654     A.U. after   12 cycles
 E2 =    -0.8290518338D+00 EUMP2 =    -0.25764159548789D+03
 SCF Done:  E(RHF) =  -256.812122111     A.U. after   10 cycles
 E2 =    -0.8297200186D+00 EUMP2 =    -0.25764184212960D+03
 SCF Done:  E(RHF) =  -256.812007783     A.U. after   10 cycles
 E2 =    -0.8299202223D+00 EUMP2 =    -0.25764192800553D+03
 SCF Done:  E(RHF) =  -256.812064209     A.U. after    9 cycles
 E2 =    -0.8298560173D+00 EUMP2 =    -0.25764192022645D+03
 Optimization completed.
    -- Stationary point found.
 Normal termination of Gaussian 09 at Wed Dec 18 16:09:48 2013.

 ----------------------------------------------------------------------
 #N Geom=AllCheck Guess=TCheck SCRF=Check GenChk RCCD(FC)/6-311G(d,p) F
 req
 ----------------------------------------------------------------------

 Structure from the checkpoint file:  "/tmp/rdj3/g09-13683/Gau-5008.chk"
 ------------------------------------------------------------------
 1H-tetrazole CH2N4 casno=288948 state=1 config=1 method=6 basis=21
 ------------------------------------------------------------------
 Charge =  0 Multiplicity = 1

                         Standard orientation:
 ---------------------------------------------------------------------
 Center     Atomic      Atomic             Coordinates (Angstroms)
 Number     Number       Type             X           Y           Z
 ---------------------------------------------------------------------
      1          6           0        1.065978    0.229843    0.000000
      2          7           0        0.000000    1.052008    0.000000
      3          7           0       -1.113864    0.305472    0.000000
      4          7           0       -0.724768   -0.920372    0.000000
      5          7           0        0.634427   -1.007218    0.000000
      6          1           0        2.094121    0.555364    0.000000
      7          1           0       -0.060553    2.056352    0.000000
 ---------------------------------------------------------------------

 SCF Done:  E(RHF) =  -256.812064209     A.U. after    1 cycles
 E2 =    -0.8298560190D+00 EUMP2 =    -0.25764192022822D+03
 SCF Done:  E(RHF) =  -256.812027206     A.U. after    9 cycles
 E2 =    -0.8299059573D+00 EUMP2 =    -0.25764193316375D+03
 SCF Done:  E(RHF) =  -256.812097695     A.U. after    9 cycles
 E2 =    -0.8298063111D+00 EUMP2 =    -0.25764190400635D+03
 SCF Done:  E(RHF) =  -256.812037548     A.U. after    9 cycles
 E2 =    -0.8298990213D+00 EUMP2 =    -0.25764193656932D+03
 SCF Done:  E(RHF) =  -256.812088336     A.U. after   10 cycles
 E2 =    -0.8298130531D+00 EUMP2 =    -0.25764190138889D+03
 E2 =    -0.8298561339D+00 EUMP2 =    -0.25764191999373D+03
 E2 =    -0.8298639942D+00 EUMP2 =    -0.25764192213767D+03
 E2 =    -0.8298481510D+00 EUMP2 =    -0.25764191612512D+03
 E2 =    -0.8298781392D+00 EUMP2 =    -0.25764191991661D+03
 E2 =    -0.8298341025D+00 EUMP2 =    -0.25764191678422D+03
 E2 =    -0.8298560791D+00 EUMP2 =    -0.25764192006794D+03
 E2 =    -0.8297698307D+00 EUMP2 =    -0.25764189703617D+03
 E2 =    -0.8299424198D+00 EUMP2 =    -0.25764194143956D+03
 E2 =    -0.8299642175D+00 EUMP2 =    -0.25764195675712D+03
 E2 =    -0.8297479123D+00 EUMP2 =    -0.25764188178652D+03
 E2 =    -0.8298478399D+00 EUMP2 =    -0.25764192711210D+03
 E2 =    -0.8298643238D+00 EUMP2 =    -0.25764191175454D+03
 E2 =    -0.8297296648D+00 EUMP2 =    -0.25764187873370D+03
 E2 =    -0.8299825659D+00 EUMP2 =    -0.25764195953963D+03
 E2 =    -0.8298561084D+00 EUMP2 =    -0.25764192002048D+03
 E2 =    -0.8298829839D+00 EUMP2 =    -0.25764191781833D+03
 E2 =    -0.8298291563D+00 EUMP2 =    -0.25764192117887D+03
 E2 =    -0.8297737764D+00 EUMP2 =    -0.25764189678190D+03
 E2 =    -0.8299383961D+00 EUMP2 =    -0.25764194138252D+03
 E2 =    -0.8298560877D+00 EUMP2 =    -0.25764192004110D+03
 SCF Done:  E(RHF) =  -256.812049551     A.U. after    7 cycles
 E2 =    -0.8298695477D+00 EUMP2 =    -0.25764191909824D+03
 SCF Done:  E(RHF) =  -256.812077570     A.U. after    7 cycles
 E2 =    -0.8298425194D+00 EUMP2 =    -0.25764192008969D+03
 SCF Done:  E(RHF) =  -256.812059027     A.U. after    7 cycles
 E2 =    -0.8298612709D+00 EUMP2 =    -0.25764192029741D+03
 SCF Done:  E(RHF) =  -256.812069063     A.U. after    8 cycles
 E2 =    -0.8298507972D+00 EUMP2 =    -0.25764191985997D+03
 SCF Done:  E(RHF) =  -256.812064150     A.U. after    6 cycles
 E2 =    -0.8298560360D+00 EUMP2 =    -0.25764192018547D+03
 SCF Done:  E(RHF) =  -256.812066821     A.U. after    6 cycles
 E2 =    -0.8298524022D+00 EUMP2 =    -0.25764191922275D+03
 SCF Done:  E(RHF) =  -256.812061321     A.U. after    7 cycles
 E2 =    -0.8298596965D+00 EUMP2 =    -0.25764192101724D+03
 SCF Done:  E(RHF) =  -256.812038797     A.U. after    7 cycles
 E2 =    -0.8298864096D+00 EUMP2 =    -0.25764192520654D+03
 SCF Done:  E(RHF) =  -256.812087849     A.U. after    7 cycles
 E2 =    -0.8298256281D+00 EUMP2 =    -0.25764191347680D+03
 SCF Done:  E(RHF) =  -256.812064171     A.U. after    6 cycles
 E2 =    -0.8298560313D+00 EUMP2 =    -0.25764192020181D+03

 Alpha  occ. eigenvalues --  -15.68143 -15.66063 -15.64241 -15.60125 -11.33889
 Alpha  occ. eigenvalues --   -1.49930  -1.25840  -1.19773  -0.90863  -0.89097
 Alpha  occ. eigenvalues --   -0.80124  -0.67801  -0.67765  -0.56895  -0.47898
 Alpha  occ. eigenvalues --   -0.47157  -0.45548  -0.41962
 Alpha virt. eigenvalues --    0.12756   0.13520   0.16684   0.18375   0.33064
 Alpha virt. eigenvalues --    0.36370   0.37391   0.46172   0.52141   0.56398
 Alpha virt. eigenvalues --    0.61412   0.62945   0.68697   0.74670   0.77688

 Mulliken charges:
               1
     1  C    0.226589
     2  N   -0.273250
     3  N   -0.023726
     4  N   -0.085167
     5  N   -0.240180
     6  H    0.143905
     7  H    0.251829
 Sum of Mulliken charges =   0.00000

 Dipole moment (field-independent basis, Debye):
    X=              2.4697    Y=              4.8100    Z=              0.0017  Tot=              5.4069
 Quadrupole moment (field-independent basis, Debye-Ang):
   XX=            -29.2181   YY=            -26.7697   ZZ=            -28.4828
   XY=              1.8125   XZ=             -0.0001   YZ=              0.0038

                      1                      2                      3
                     A"                     A"                     A"
 Frequencies --    585.1848               701.7242               745.7446
 Red. masses --      1.9323                 1.9593                 6.5165
 Frc consts  --      0.3899                 0.5684                 2.1352
 IR Inten    --     83.8836                11.8328                11.7373

                      4                      5                      6
                     A"                     A'                     A'
 Frequencies --    887.4932               997.2770              1033.1050
 Red. masses --      1.3386                 4.6418                 7.0719
 Frc consts  --      0.6212                 2.7200                 4.4471
 IR Inten    --     18.0643                 1.8233                 1.5816

                      7                      8                      9
                     A'                     A'                     A'
 Frequencies --   1099.6199              1129.2703              1176.0496
 Red. masses --      4.7342                 2.5767                 1.9473
 Frc consts  --      3.3728                 1.9360                 1.5868
 IR Inten    --     23.6387                25.9652                 9.9174

                     10                     11                     12
                     A'                     A'                     A'
 Frequencies --   1314.2075              1355.5282              1522.4068
 Red. masses --      3.1711                 7.6127                 3.1558
 Frc consts  --      3.2269                 8.2415                 4.3094
 IR Inten    --      0.2538                17.6526                16.7160

                     13                     14                     15
                     A'                     A'                     A'
 Frequencies --   1563.2416              3324.8238              3732.3906
 Red. masses --      3.5502                 1.1022                 1.0841
 Frc consts  --      5.1116                 7.1787                 8.8977
 IR Inten    --     18.3218                 1.0543               115.8998

 - Thermochemistry -
 -------------------
 Temperature   298.150 Kelvin.  Pressure   1.00000 Atm.
 Atom     1 has atomic number  6 and mass  12.00000

 Molecular mass:    70.02795 amu.
 Principal axes and moments of inertia in atomic units:
                           1         2         3
     Eigenvalues --   170.25348 173.81298 344.06646
           X            0.83216   0.55454   0.00000
           Y           -0.55454   0.83216   0.00000
           Z            0.00000   0.00000   1.00000
 This molecule is an asymmetric top.
 Rotational symmetry number  1.
 Rotational temperatures (Kelvin)      0.50873     0.49832     0.25174
 Rotational constants (GHZ):          10.60032    10.38324     5.24533
 Zero-point vibrational energy     126613.2 (Joules/Mol)
                                   30.26127 (Kcal/Mol)
 Warning -- explicit consideration of   1 degrees of freedom as
           vibrations may cause significant error
 Vibrational temperatures:    841.95  1009.62  1072.96  1276.90  1434.86
          (Kelvin)           1486.41  1582.11  1624.77  1692.07  1890.85
                             1950.30  2190.40  2249.15  4783.67  5370.07

 Zero-point correction=                           0.048224 (Hartree/Particle)
 Thermal correction to Energy=                    0.051652
 Thermal correction to Enthalpy=                  0.052597
 Thermal correction to Gibbs Free Energy=         0.022149
 Sum of electronic and zero-point Energies=           -257.588512
 Sum of electronic and thermal Energies=              -257.585084
 Sum of electronic and thermal Enthalpies=            -257.584140
 Sum of electronic and thermal Free Energies=         -257.614587

                     E (Thermal)             CV                S
                      KCal/Mol        Cal/Mol-Kelvin    Cal/Mol-Kelvin
 Total                   32.412             10.986             64.082
 Electronic               0.000              0.000              0.000
 Translational            0.889              2.981             38.656
 Rotational               0.889              2.981             23.836
 Vibrational             30.635              5.024              1.590
 Vibration     1          0.942              1.063              0.476

 Optimization completed.
    -- Stationary point found.
 Normal termination of Gaussian 09 at Wed Dec 18 17:56:35 2013.
