 Gaussian 09, Revision D.01,
 Gaussian 09:  EM64L-G09RevD.01 24-Apr-2013

 ------------------------------------
 #CCD/3-21G opt=z-matrix freq density
 ------------------------------------

 -----------------------------------------------------------------
 1H-tetrazole CH2N4 casno=288948 state=1 config=1 method=6 basis=2
 -----------------------------------------------------------------
 Symbolic Z-matrix:
 Charge =  0 Multiplicity = 1

 SCF Done:  E(RHF) =  -255.261114440     A.U. after   14 cycles
 E2 =    -0.5240768282D+00 EUMP2 =    -0.25578519126841D+03
 SCF Done:  E(RHF) =  -255.265401734     A.U. after   15 cycles
 E2 =    -0.5487407197D+00 EUMP2 =    -0.25581414245416D+03
 SCF Done:  E(RHF) =  -255.261121981     A.U. after   14 cycles
 E2 =    -0.5567236265D+00 EUMP2 =    -0.25581784560735D+03
 SCF Done:  E(RHF) =  -255.258437117     A.U. after   14 cycles
 E2 =    -0.5560985049D+00 EUMP2 =    -0.25581453562229D+03
 SCF Done:  E(RHF) =  -255.260265430     A.U. after   14 cycles
 E2 =    -0.5567680812D+00 EUMP2 =    -0.25581703351138D+03
 SCF Done:  E(RHF) =  -255.261384137     A.U. after   12 cycles
 E2 =    -0.5571788166D+00 EUMP2 =    -0.25581856295338D+03
 SCF Done:  E(RHF) =  -255.261461682     A.U. after   13 cycles
 E2 =    -0.5564648057D+00 EUMP2 =    -0.25581792648732D+03
 SCF Done:  E(RHF) =  -255.261002561     A.U. after   13 cycles
 E2 =    -0.5578204835D+00 EUMP2 =    -0.25581882304433D+03
 SCF Done:  E(RHF) =  -255.260608777     A.U. after   12 cycles
 E2 =    -0.5583957498D+00 EUMP2 =    -0.25581900452707D+03
 SCF Done:  E(RHF) =  -255.261336984     A.U. after   13 cycles
 E2 =    -0.5572458447D+00 EUMP2 =    -0.25581858282862D+03
 E2 =    -0.5582342467D+00 EUMP2 =    -0.25581895373427D+03
 E2 =    -0.5581546937D+00 EUMP2 =    -0.25581893856130D+03
 E2 =    -0.5574132583D+00 EUMP2 =    -0.25581874664665D+03
 E2 =    -0.5581030902D+00 EUMP2 =    -0.25581892458302D+03
 E2 =    -0.5577345710D+00 EUMP2 =    -0.25581883179897D+03
 E2 =    -0.5580746381D+00 EUMP2 =    -0.25581891726441D+03
 E2 =    -0.5580763815D+00 EUMP2 =    -0.25581891438606D+03
 E2 =    -0.5580627985D+00 EUMP2 =    -0.25581891197703D+03
 E2 =    -0.5580493706D+00 EUMP2 =    -0.25581890786943D+03
 E2 =    -0.5580551893D+00 EUMP2 =    -0.25581891027396D+03
 Optimization completed.
    -- Stationary point found.
 Normal termination of Gaussian 09 at Tue Dec 10 10:20:01 2013.

 -------------------------------------------------------------------
 #N Geom=AllCheck Guess=TCheck SCRF=Check GenChk RCCD(FC)/3-21G Freq
 -------------------------------------------------------------------

 Structure from the checkpoint file:  "/tmp/rdj3/g09-31683/Gau-20460.chk"
 -----------------------------------------------------------------
 1H-tetrazole CH2N4 casno=288948 state=1 config=1 method=6 basis=2
 -----------------------------------------------------------------
 Charge =  0 Multiplicity = 1

                         Standard orientation:
 ---------------------------------------------------------------------
 Center     Atomic      Atomic             Coordinates (Angstroms)
 Number     Number       Type             X           Y           Z
 ---------------------------------------------------------------------
      1          6           0        1.085712    0.254827    0.000000
      2          7           0        0.000000    1.089858    0.000000
      3          7           0       -1.172026    0.297665    0.000000
      4          7           0       -0.756225   -0.972660    0.000000
      5          7           0        0.705715   -1.018566    0.000000
      6          1           0        2.107314    0.597933    0.000000
      7          1           0       -0.063834    2.099031    0.000000
 ---------------------------------------------------------------------

 E2 =    -0.5580219831D+00 EUMP2 =    -0.25581890691153D+03
 E2 =    -0.5580700450D+00 EUMP2 =    -0.25581890620923D+03
 E2 =    -0.5578997738D+00 EUMP2 =    -0.25581886074030D+03
 E2 =    -0.5581923231D+00 EUMP2 =    -0.25581895193417D+03
 E2 =    -0.5580460400D+00 EUMP2 =    -0.25581890688449D+03
 E2 =    -0.5580978843D+00 EUMP2 =    -0.25581891747378D+03
 E2 =    -0.5579941188D+00 EUMP2 =    -0.25581889571592D+03
 E2 =    -0.5579432393D+00 EUMP2 =    -0.25581887847069D+03
 E2 =    -0.5581487853D+00 EUMP2 =    -0.25581893372703D+03
 E2 =    -0.5580460286D+00 EUMP2 =    -0.25581890689080D+03
 SCF Done:  E(RHF) =  -255.260838315     A.U. after    8 cycles
 E2 =    -0.5580645597D+00 EUMP2 =    -0.25581890287462D+03
 SCF Done:  E(RHF) =  -255.260882602     A.U. after    9 cycles
 E2 =    -0.5580273712D+00 EUMP2 =    -0.25581890997278D+03
 SCF Done:  E(RHF) =  -255.260853216     A.U. after    9 cycles
 E2 =    -0.5580529371D+00 EUMP2 =    -0.25581890615297D+03
 SCF Done:  E(RHF) =  -255.260868630     A.U. after   10 cycles
 E2 =    -0.5580390128D+00 EUMP2 =    -0.25581890764235D+03
 SCF Done:  E(RHF) =  -255.260861029     A.U. after    7 cycles
 E2 =    -0.5580459809D+00 EUMP2 =    -0.25581890701015D+03
 SCF Done:  E(RHF) =  -255.260862583     A.U. after    9 cycles
 E2 =    -0.5580438982D+00 EUMP2 =    -0.25581890648142D+03
 SCF Done:  E(RHF) =  -255.260859342     A.U. after    9 cycles
 E2 =    -0.5580480741D+00 EUMP2 =    -0.25581890741587D+03
 SCF Done:  E(RHF) =  -255.260831624     A.U. after    8 cycles
 E2 =    -0.5580784776D+00 EUMP2 =    -0.25581891010209D+03
 SCF Done:  E(RHF) =  -255.260888880     A.U. after    9 cycles
 E2 =    -0.5580134691D+00 EUMP2 =    -0.25581890234905D+03
 SCF Done:  E(RHF) =  -255.260861053     A.U. after    8 cycles
 E2 =    -0.5580459777D+00 EUMP2 =    -0.25581890703048D+03

 Alpha  occ. eigenvalues --  -15.62100 -15.61784 -15.60135 -15.55376 -11.30734
 Alpha  occ. eigenvalues --   -1.47439  -1.23949  -1.20699  -0.89687  -0.87843
 Alpha  occ. eigenvalues --   -0.79729  -0.66007  -0.65777  -0.55613  -0.48275
 Alpha  occ. eigenvalues --   -0.46407  -0.44880  -0.42760
 Alpha virt. eigenvalues --    0.11832   0.16984   0.23073   0.25812   0.34083
 Alpha virt. eigenvalues --    0.37743   0.45745   0.54637   0.61656   0.92554
 Alpha virt. eigenvalues --    0.93797   1.04654   1.09082   1.20663   1.31767

 Mulliken charges:
               1
     1  C    0.325082
     2  N   -0.550120
     3  N   -0.017521
     4  N   -0.072030
     5  N   -0.332363
     6  H    0.269985
     7  H    0.376966
 Sum of Mulliken charges =   0.00000

 Dipole moment (field-independent basis, Debye):
    X=              2.4273    Y=              4.9251    Z=              0.0020  Tot=              5.4907
 Quadrupole moment (field-independent basis, Debye-Ang):
   XX=            -29.7426   YY=            -27.1973   ZZ=            -28.8998
   XY=              2.0372   XZ=             -0.0001   YZ=              0.0044

                      1                      2                      3
                     A"                     A"                     A"
 Frequencies --    615.7032               675.1996               689.7709
 Red. masses --      2.3219                 1.7078                 5.2646
 Frc consts  --      0.5186                 0.4587                 1.4758
 IR Inten    --    116.0185                28.8385                24.8933

                      4                      5                      6
                     A'                     A"                     A'
 Frequencies --    764.9703               909.2770               925.1213
 Red. masses --     11.3930                 1.3696                 5.7993
 Frc consts  --      3.9281                 0.6672                 2.9243
 IR Inten    --     15.5421                17.8913                16.8437

                      7                      8                      9
                     A'                     A'                     A'
 Frequencies --    984.6348              1017.0133              1065.7912
 Red. masses --      4.9601                 6.5490                 9.9029
 Frc consts  --      2.8333                 3.9910                 6.6276
 IR Inten    --      5.0603                 7.5714                 1.7707

                     10                     11                     12
                     A'                     A'                     A'
 Frequencies --   1145.3814              1238.2788              1402.6324
 Red. masses --      2.3800                 2.0369                 2.5127
 Frc consts  --      1.8396                 1.8402                 2.9126
 IR Inten    --     12.9988                 9.6867                14.0504

                     13                     14                     15
                     A'                     A'                     A'
 Frequencies --   1463.4101              3307.8312              3630.2715
 Red. masses --      2.0299                 1.1001                 1.0842
 Frc consts  --      2.5613                 7.0918                 8.4187
 IR Inten    --     43.6214                 1.1148               118.5438

 - Thermochemistry -
 -------------------
 Temperature   298.150 Kelvin.  Pressure   1.00000 Atm.
 Atom     1 has atomic number  6 and mass  12.00000

 Molecular mass:    70.02795 amu.
 Principal axes and moments of inertia in atomic units:
                           1         2         3
     Eigenvalues --   182.41958 188.64980 371.06937
           X            0.98729   0.15894   0.00000
           Y           -0.15894   0.98729   0.00000
           Z            0.00000   0.00000   1.00000
 This molecule is an asymmetric top.
 Rotational symmetry number  1.
 Rotational temperatures (Kelvin)      0.47481     0.45912     0.23342
 Rotational constants (GHZ):           9.89335     9.56662     4.86362
 Zero-point vibrational energy     118641.4 (Joules/Mol)
                                   28.35597 (Kcal/Mol)
 Warning -- explicit consideration of   1 degrees of freedom as
           vibrations may cause significant error
 Vibrational temperatures:    885.86   971.46   992.43  1100.62  1308.25
          (Kelvin)           1331.04  1416.67  1463.25  1533.43  1647.95
                             1781.60  2018.07  2105.52  4759.23  5223.14

 Zero-point correction=                           0.045188 (Hartree/Particle)
 Thermal correction to Energy=                    0.048753
 Thermal correction to Enthalpy=                  0.049697
 Thermal correction to Gibbs Free Energy=         0.018970
 Sum of electronic and zero-point Energies=           -255.766838
 Sum of electronic and thermal Energies=              -255.763274
 Sum of electronic and thermal Enthalpies=            -255.762330
 Sum of electronic and thermal Free Energies=         -255.793057

                     E (Thermal)             CV                S
                      KCal/Mol        Cal/Mol-Kelvin    Cal/Mol-Kelvin
 Total                   30.593             12.029             64.671
 Electronic               0.000              0.000              0.000
 Translational            0.889              2.981             38.656
 Rotational               0.889              2.981             24.061
 Vibrational             28.815              6.068              1.955
 Vibration     1          0.975              0.999              0.423

 Optimization completed.
    -- Stationary point found.
 Normal termination of Gaussian 09 at Tue Dec 10 10:28:50 2013.
