 Gaussian 09, Revision D.01,
 Gaussian 09:  EM64L-G09RevD.01 24-Apr-2013

 -----------------------------
 #CCD/6-31G** opt freq density
 -----------------------------

 -----------------------------------------------------------------
 1H-tetrazole CH2N4 casno=288948 state=1 config=1 method=6 basis=3
 -----------------------------------------------------------------
 Symbolic Z-matrix:
 Charge =  0 Multiplicity = 1

 SCF Done:  E(RHF) =  -256.760119309     A.U. after   15 cycles
 E2 =    -0.7847682184D+00 EUMP2 =    -0.25754488752766D+03
 SCF Done:  E(RHF) =  -256.756108047     A.U. after   13 cycles
 E2 =    -0.7952676978D+00 EUMP2 =    -0.25755137574511D+03
 SCF Done:  E(RHF) =  -256.755557513     A.U. after   12 cycles
 E2 =    -0.7961233827D+00 EUMP2 =    -0.25755168089595D+03
 SCF Done:  E(RHF) =  -256.755375258     A.U. after   11 cycles
 E2 =    -0.7964156547D+00 EUMP2 =    -0.25755179091302D+03
 SCF Done:  E(RHF) =  -256.755489267     A.U. after   10 cycles
 E2 =    -0.7962769451D+00 EUMP2 =    -0.25755176621171D+03
 Optimization completed.
    -- Stationary point found.
 Normal termination of Gaussian 09 at Wed Dec 18 20:17:23 2013.

 ----------------------------------------------------------------------
 #N Geom=AllCheck Guess=TCheck SCRF=Check GenChk RCCD(FC)/6-31G(d,p) Fr
 eq
 ----------------------------------------------------------------------

 Structure from the checkpoint file:  "/tmp/rdj3/g09-13683/Gau-14830.chk"
 -----------------------------------------------------------------
 1H-tetrazole CH2N4 casno=288948 state=1 config=1 method=6 basis=3
 -----------------------------------------------------------------
 Charge =  0 Multiplicity = 1

                         Standard orientation:
 ---------------------------------------------------------------------
 Center     Atomic      Atomic             Coordinates (Angstroms)
 Number     Number       Type             X           Y           Z
 ---------------------------------------------------------------------
      1          6           0        1.067185    0.233744    0.000000
      2          7           0        0.000000    1.053798    0.000000
      3          7           0       -1.118904    0.305763    0.000000
      4          7           0       -0.725007   -0.926110    0.000000
      5          7           0        0.638745   -1.007745    0.000000
      6          1           0        2.090679    0.560575    0.000000
      7          1           0       -0.057626    2.057020    0.000000
 ---------------------------------------------------------------------

 SCF Done:  E(RHF) =  -256.755489267     A.U. after    1 cycles
 E2 =    -0.7962769430D+00 EUMP2 =    -0.25755176620965D+03
 SCF Done:  E(RHF) =  -256.755444999     A.U. after    9 cycles
 E2 =    -0.7963336080D+00 EUMP2 =    -0.25755177860676D+03
 SCF Done:  E(RHF) =  -256.755529954     A.U. after   10 cycles
 E2 =    -0.7962204911D+00 EUMP2 =    -0.25755175044469D+03
 SCF Done:  E(RHF) =  -256.755459273     A.U. after   10 cycles
 E2 =    -0.7963227855D+00 EUMP2 =    -0.25755178205831D+03
 SCF Done:  E(RHF) =  -256.755516690     A.U. after   11 cycles
 E2 =    -0.7962311032D+00 EUMP2 =    -0.25755174779274D+03
 E2 =    -0.7962770619D+00 EUMP2 =    -0.25755176598171D+03
 E2 =    -0.7962874112D+00 EUMP2 =    -0.25755176790614D+03
 E2 =    -0.7962665402D+00 EUMP2 =    -0.25755176226377D+03
 E2 =    -0.7963042252D+00 EUMP2 =    -0.25755176512152D+03
 E2 =    -0.7962498493D+00 EUMP2 =    -0.25755176350479D+03
 E2 =    -0.7962770001D+00 EUMP2 =    -0.25755176604759D+03
 E2 =    -0.7961828913D+00 EUMP2 =    -0.25755174236514D+03
 E2 =    -0.7963711763D+00 EUMP2 =    -0.25755178807271D+03
 E2 =    -0.7963899346D+00 EUMP2 =    -0.25755180275668D+03
 E2 =    -0.7961640024D+00 EUMP2 =    -0.25755172775684D+03
 E2 =    -0.7962646577D+00 EUMP2 =    -0.25755177323748D+03
 E2 =    -0.7962893379D+00 EUMP2 =    -0.25755175760319D+03
 E2 =    -0.7961423725D+00 EUMP2 =    -0.25755172484326D+03
 E2 =    -0.7964116779D+00 EUMP2 =    -0.25755180541339D+03
 E2 =    -0.7962770313D+00 EUMP2 =    -0.25755176599901D+03
 E2 =    -0.7963096641D+00 EUMP2 =    -0.25755176375637D+03
 E2 =    -0.7962442912D+00 EUMP2 =    -0.25755176718373D+03
 E2 =    -0.7961936622D+00 EUMP2 =    -0.25755174317729D+03
 E2 =    -0.7963603516D+00 EUMP2 =    -0.25755178694261D+03
 E2 =    -0.7962770111D+00 EUMP2 =    -0.25755176602106D+03
 SCF Done:  E(RHF) =  -256.755479811     A.U. after    7 cycles
 E2 =    -0.7962863959D+00 EUMP2 =    -0.25755176620667D+03
 SCF Done:  E(RHF) =  -256.755497378     A.U. after    8 cycles
 E2 =    -0.7962675131D+00 EUMP2 =    -0.25755176489105D+03
 SCF Done:  E(RHF) =  -256.755485645     A.U. after    8 cycles
 E2 =    -0.7962809968D+00 EUMP2 =    -0.25755176664215D+03
 SCF Done:  E(RHF) =  -256.755492551     A.U. after    8 cycles
 E2 =    -0.7962729176D+00 EUMP2 =    -0.25755176546898D+03
 SCF Done:  E(RHF) =  -256.755489209     A.U. after    7 cycles
 E2 =    -0.7962769570D+00 EUMP2 =    -0.25755176616614D+03
 SCF Done:  E(RHF) =  -256.755490959     A.U. after    7 cycles
 E2 =    -0.7962743166D+00 EUMP2 =    -0.25755176527539D+03
 SCF Done:  E(RHF) =  -256.755487300     A.U. after    8 cycles
 E2 =    -0.7962796227D+00 EUMP2 =    -0.25755176692281D+03
 SCF Done:  E(RHF) =  -256.755466538     A.U. after    7 cycles
 E2 =    -0.7963049017D+00 EUMP2 =    -0.25755177144011D+03
 SCF Done:  E(RHF) =  -256.755510184     A.U. after    8 cycles
 E2 =    -0.7962489938D+00 EUMP2 =    -0.25755175917773D+03
 SCF Done:  E(RHF) =  -256.755489230     A.U. after    6 cycles
 E2 =    -0.7962769515D+00 EUMP2 =    -0.25755176618127D+03

 Alpha  occ. eigenvalues --  -15.68919 -15.66910 -15.65113 -15.60875 -11.34150
 Alpha  occ. eigenvalues --   -1.49350  -1.25564  -1.19471  -0.90716  -0.88879
 Alpha  occ. eigenvalues --   -0.79941  -0.67595  -0.67425  -0.56666  -0.47718
 Alpha  occ. eigenvalues --   -0.47063  -0.45312  -0.41708
 Alpha virt. eigenvalues --    0.13869   0.18809   0.19813   0.25248   0.36727
 Alpha virt. eigenvalues --    0.38128   0.47410   0.49970   0.64755   0.73146
 Alpha virt. eigenvalues --    0.73924   0.82390   0.82501   0.89388   0.90993

 Mulliken charges:
               1
     1  C    0.293278
     2  N   -0.387438
     3  N   -0.033426
     4  N   -0.081250
     5  N   -0.303776
     6  H    0.182764
     7  H    0.329848
 Sum of Mulliken charges =   0.00000

 Dipole moment (field-independent basis, Debye):
    X=              2.5107    Y=              4.8345    Z=              0.0017  Tot=              5.4476
 Quadrupole moment (field-independent basis, Debye-Ang):
   XX=            -29.0738   YY=            -26.5639   ZZ=            -28.4912
   XY=              1.8495   XZ=             -0.0001   YZ=              0.0040

                      1                      2                      3
                     A"                     A"                     A"
 Frequencies --    587.3065               701.2428               745.6553
 Red. masses --      1.9588                 1.9786                 6.5426
 Frc consts  --      0.3981                 0.5732                 2.1433
 IR Inten    --     90.7199                13.0261                12.0904

                      4                      5                      6
                     A"                     A'                     A'
 Frequencies --    875.0078               998.0082              1032.3189
 Red. masses --      1.3146                 5.2407                 6.8660
 Frc consts  --      0.5930                 3.0754                 4.3111
 IR Inten    --     18.6749                 1.6518                 1.5335

                      7                      8                      9
                     A'                     A'                     A'
 Frequencies --   1102.3421              1129.7088              1186.2865
 Red. masses --      6.2382                 2.6974                 1.7539
 Frc consts  --      4.4662                 2.0283                 1.4542
 IR Inten    --     21.0963                25.3905                11.7295

                     10                     11                     12
                     A'                     A'                     A'
 Frequencies --   1323.0933              1351.5883              1538.9655
 Red. masses --      3.0787                 7.1609                 2.9293
 Frc consts  --      3.1754                 7.7073                 4.0876
 IR Inten    --      0.5810                16.6427                20.2890

                     13                     14                     15
                     A'                     A'                     A'
 Frequencies --   1574.6343              3377.7464              3774.6683
 Red. masses --      3.6856                 1.1015                 1.0839
 Frc consts  --      5.3842                 7.4047                 9.0992
 IR Inten    --     18.6166                 0.7253               115.7622

 - Thermochemistry -
 -------------------
 Temperature   298.150 Kelvin.  Pressure   1.00000 Atm.
 Atom     1 has atomic number  6 and mass  12.00000

 Molecular mass:    70.02795 amu.
 Principal axes and moments of inertia in atomic units:
                           1         2         3
     Eigenvalues --   171.27166 174.59414 345.86580
           X            0.84264   0.53848   0.00000
           Y           -0.53848   0.84264   0.00000
           Z            0.00000   0.00000   1.00000
 This molecule is an asymmetric top.
 Rotational symmetry number  1.
 Rotational temperatures (Kelvin)      0.50571     0.49609     0.25043
 Rotational constants (GHZ):          10.53730    10.33678     5.21804
 Zero-point vibrational energy     127393.8 (Joules/Mol)
                                   30.44784 (Kcal/Mol)
 Warning -- explicit consideration of   1 degrees of freedom as
           vibrations may cause significant error
 Vibrational temperatures:    845.00  1008.93  1072.83  1258.94  1435.91
          (Kelvin)           1485.27  1586.02  1625.40  1706.80  1903.63
                             1944.63  2214.23  2265.54  4859.82  5430.90

 Zero-point correction=                           0.048522 (Hartree/Particle)
 Thermal correction to Energy=                    0.051950
 Thermal correction to Enthalpy=                  0.052894
 Thermal correction to Gibbs Free Energy=         0.022439
 Sum of electronic and zero-point Energies=           -257.502641
 Sum of electronic and thermal Energies=              -257.499214
 Sum of electronic and thermal Enthalpies=            -257.498269
 Sum of electronic and thermal Free Energies=         -257.528724

                     E (Thermal)             CV                S
                      KCal/Mol        Cal/Mol-Kelvin    Cal/Mol-Kelvin
 Total                   32.599             10.982             64.097
 Electronic               0.000              0.000              0.000
 Translational            0.889              2.981             38.656
 Rotational               0.889              2.981             23.851
 Vibrational             30.821              5.020              1.590
 Vibration     1          0.944              1.059              0.472

 Optimization completed.
    -- Stationary point found.
 Normal termination of Gaussian 09 at Wed Dec 18 21:17:25 2013.
