 Gaussian 09, Revision D.01,
 Gaussian 09:  EM64L-G09RevD.01 24-Apr-2013

 --------------------------
 #CCD/TZVP opt freq density
 --------------------------

 ------------------------------------------------------------------
 1H-tetrazole CH2N4 casno=288948 state=1 config=1 method=6 basis=32
 ------------------------------------------------------------------
 Symbolic Z-matrix:
 Charge =  0 Multiplicity = 1

 SCF Done:  E(RHF) =  -256.833827633     A.U. after   14 cycles
 E2 =    -0.8219230097D+00 EUMP2 =    -0.25765575064234D+03
 SCF Done:  E(RHF) =  -256.830756246     A.U. after   12 cycles
 E2 =    -0.8294593077D+00 EUMP2 =    -0.25766021555333D+03
 SCF Done:  E(RHF) =  -256.830221843     A.U. after   11 cycles
 E2 =    -0.8302729193D+00 EUMP2 =    -0.25766049476242D+03
 SCF Done:  E(RHF) =  -256.830096129     A.U. after   11 cycles
 E2 =    -0.8304733497D+00 EUMP2 =    -0.25766056947916D+03
 SCF Done:  E(RHF) =  -256.830189601     A.U. after    9 cycles
 E2 =    -0.8303530647D+00 EUMP2 =    -0.25766054266549D+03
 Optimization completed.
    -- Stationary point found.
 Normal termination of Gaussian 09 at Wed Dec 18 18:08:16 2013.

 ------------------------------------------------------------------
 #N Geom=AllCheck Guess=TCheck SCRF=Check GenChk RCCD(FC)/TZVP Freq
 ------------------------------------------------------------------

 Structure from the checkpoint file:  "/tmp/rdj3/g09-13683/Gau-9919.chk"
 ------------------------------------------------------------------
 1H-tetrazole CH2N4 casno=288948 state=1 config=1 method=6 basis=32
 ------------------------------------------------------------------
 Charge =  0 Multiplicity = 1

                         Standard orientation:
 ---------------------------------------------------------------------
 Center     Atomic      Atomic             Coordinates (Angstroms)
 Number     Number       Type             X           Y           Z
 ---------------------------------------------------------------------
      1          6           0        1.063250    0.231462    0.000000
      2          7           0        0.000000    1.051503    0.000000
      3          7           0       -1.113937    0.302302    0.000000
      4          7           0       -0.724214   -0.921048    0.000000
      5          7           0        0.637157   -1.004022    0.000000
      6          1           0        2.087654    0.555456    0.000000
      7          1           0       -0.060194    2.054628    0.000000
 ---------------------------------------------------------------------

 SCF Done:  E(RHF) =  -256.830189601     A.U. after    1 cycles
 E2 =    -0.8303530660D+00 EUMP2 =    -0.25766054266672D+03
 SCF Done:  E(RHF) =  -256.830154008     A.U. after    9 cycles
 E2 =    -0.8304007900D+00 EUMP2 =    -0.25766055479811D+03
 SCF Done:  E(RHF) =  -256.830221646     A.U. after    9 cycles
 E2 =    -0.8303055824D+00 EUMP2 =    -0.25766052722803D+03
 SCF Done:  E(RHF) =  -256.830163460     A.U. after    9 cycles
 E2 =    -0.8303955128D+00 EUMP2 =    -0.25766055897326D+03
 SCF Done:  E(RHF) =  -256.830213204     A.U. after   10 cycles
 E2 =    -0.8303106615D+00 EUMP2 =    -0.25766052386576D+03
 E2 =    -0.8303532014D+00 EUMP2 =    -0.25766054247248D+03
 E2 =    -0.8303625455D+00 EUMP2 =    -0.25766054448472D+03
 E2 =    -0.8303437018D+00 EUMP2 =    -0.25766053870941D+03
 E2 =    -0.8303744420D+00 EUMP2 =    -0.25766054212599D+03
 E2 =    -0.8303319141D+00 EUMP2 =    -0.25766053948184D+03
 E2 =    -0.8303531550D+00 EUMP2 =    -0.25766054255342D+03
 E2 =    -0.8302683690D+00 EUMP2 =    -0.25766051909213D+03
 E2 =    -0.8304379843D+00 EUMP2 =    -0.25766056430609D+03
 E2 =    -0.8304592748D+00 EUMP2 =    -0.25766057929133D+03
 E2 =    -0.8302469531D+00 EUMP2 =    -0.25766050418877D+03
 E2 =    -0.8303451779D+00 EUMP2 =    -0.25766054943055D+03
 E2 =    -0.8303610885D+00 EUMP2 =    -0.25766053437539D+03
 E2 =    -0.8302287613D+00 EUMP2 =    -0.25766050120456D+03
 E2 =    -0.8304775722D+00 EUMP2 =    -0.25766058198777D+03
 E2 =    -0.8303531609D+00 EUMP2 =    -0.25766054246966D+03
 E2 =    -0.8303818277D+00 EUMP2 =    -0.25766054087064D+03
 E2 =    -0.8303244140D+00 EUMP2 =    -0.25766054305507D+03
 E2 =    -0.8302739682D+00 EUMP2 =    -0.25766051858579D+03
 E2 =    -0.8304323025D+00 EUMP2 =    -0.25766056446530D+03
 E2 =    -0.8303531395D+00 EUMP2 =    -0.25766054249041D+03
 SCF Done:  E(RHF) =  -256.830179280     A.U. after    7 cycles
 E2 =    -0.8303631092D+00 EUMP2 =    -0.25766054238947D+03
 SCF Done:  E(RHF) =  -256.830198601     A.U. after    7 cycles
 E2 =    -0.8303430525D+00 EUMP2 =    -0.25766054165325D+03
 SCF Done:  E(RHF) =  -256.830185799     A.U. after    7 cycles
 E2 =    -0.8303571309D+00 EUMP2 =    -0.25766054293038D+03
 SCF Done:  E(RHF) =  -256.830193069     A.U. after    8 cycles
 E2 =    -0.8303490195D+00 EUMP2 =    -0.25766054208876D+03
 SCF Done:  E(RHF) =  -256.830189544     A.U. after    7 cycles
 E2 =    -0.8303530802D+00 EUMP2 =    -0.25766054262448D+03
 SCF Done:  E(RHF) =  -256.830191591     A.U. after    6 cycles
 E2 =    -0.8303500870D+00 EUMP2 =    -0.25766054167818D+03
 SCF Done:  E(RHF) =  -256.830187334     A.U. after    7 cycles
 E2 =    -0.8303560963D+00 EUMP2 =    -0.25766054343032D+03
 SCF Done:  E(RHF) =  -256.830165529     A.U. after    7 cycles
 E2 =    -0.8303827536D+00 EUMP2 =    -0.25766054828214D+03
 SCF Done:  E(RHF) =  -256.830211895     A.U. after    8 cycles
 E2 =    -0.8303233987D+00 EUMP2 =    -0.25766053529376D+03
 SCF Done:  E(RHF) =  -256.830189564     A.U. after    6 cycles
 E2 =    -0.8303530789D+00 EUMP2 =    -0.25766054264248D+03

 Alpha  occ. eigenvalues --  -15.68531 -15.66641 -15.64840 -15.60617 -11.33989
 Alpha  occ. eigenvalues --   -1.50462  -1.26205  -1.20334  -0.91226  -0.89562
 Alpha  occ. eigenvalues --   -0.80615  -0.68214  -0.68113  -0.57267  -0.48159
 Alpha  occ. eigenvalues --   -0.47527  -0.45878  -0.42441
 Alpha virt. eigenvalues --    0.11188   0.12490   0.16766   0.17017   0.22166
 Alpha virt. eigenvalues --    0.23682   0.32813   0.33186   0.38562   0.40363
 Alpha virt. eigenvalues --    0.44003   0.47354   0.48759   0.49700   0.51351

 Mulliken charges:
               1
     1  C   -0.106702
     2  N   -0.086343
     3  N   -0.059475
     4  N   -0.075943
     5  N   -0.061086
     6  H    0.132539
     7  H    0.257010
 Sum of Mulliken charges =   0.00000

 Dipole moment (field-independent basis, Debye):
    X=              2.5305    Y=              4.9114    Z=              0.0017  Tot=              5.5250
 Quadrupole moment (field-independent basis, Debye-Ang):
   XX=            -29.6344   YY=            -27.1267   ZZ=            -28.7578
   XY=              1.9024   XZ=             -0.0001   YZ=              0.0039

                      1                      2                      3
                     A"                     A"                     A"
 Frequencies --    479.8071               686.6582               725.6452
 Red. masses --      1.9828                 2.0855                 6.6516
 Frc consts  --      0.2689                 0.5793                 2.0636
 IR Inten    --     73.9929                12.2572                 9.8406

                      4                      5                      6
                     A"                     A'                     A'
 Frequencies --    838.0963               988.0871              1026.7331
 Red. masses --      1.2584                 5.6191                 7.8540
 Frc consts  --      0.5208                 3.2323                 4.8782
 IR Inten    --     29.1043                 1.9109                 0.8022

                      7                      8                      9
                     A'                     A'                     A'
 Frequencies --   1082.2966              1116.5861              1177.6025
 Red. masses --      5.0938                 2.9104                 1.8220
 Frc consts  --      3.5155                 2.1379                 1.4887
 IR Inten    --     25.8845                22.6021                13.9534

                     10                     11                     12
                     A'                     A'                     A'
 Frequencies --   1313.7217              1339.9079              1516.1025
 Red. masses --      2.8570                 7.0915                 2.9498
 Frc consts  --      2.9052                 7.5013                 3.9949
 IR Inten    --      0.5164                18.6997                18.2963

                     13                     14                     15
                     A'                     A'                     A'
 Frequencies --   1561.5054              3342.9668              3726.3628
 Red. masses --      3.4365                 1.1020                 1.0841
 Frc consts  --      4.9368                 7.2562                 8.8696
 IR Inten    --     19.9931                 1.3794               119.3577

 - Thermochemistry -
 -------------------
 Temperature   298.150 Kelvin.  Pressure   1.00000 Atm.
 Atom     1 has atomic number  6 and mass  12.00000

 Molecular mass:    70.02795 amu.
 Principal axes and moments of inertia in atomic units:
                           1         2         3
     Eigenvalues --   170.06911 173.39258 343.46169
           X            0.85787   0.51386   0.00000
           Y           -0.51386   0.85787   0.00000
           Z            0.00000   0.00000   1.00000
 This molecule is an asymmetric top.
 Rotational symmetry number  1.
 Rotational temperatures (Kelvin)      0.50929     0.49952     0.25218
 Rotational constants (GHZ):          10.61181    10.40841     5.25456
 Zero-point vibrational energy     125141.8 (Joules/Mol)
                                   29.90961 (Kcal/Mol)
 Warning -- explicit consideration of   1 degrees of freedom as
           vibrations may cause significant error
 Vibrational temperatures:    690.33   987.95  1044.04  1205.83  1421.64
          (Kelvin)           1477.24  1557.18  1606.52  1694.31  1890.15
                             1927.83  2181.33  2246.66  4809.78  5361.40

 Zero-point correction=                           0.047664 (Hartree/Particle)
 Thermal correction to Energy=                    0.051194
 Thermal correction to Enthalpy=                  0.052138
 Thermal correction to Gibbs Free Energy=         0.021541
 Sum of electronic and zero-point Energies=           -257.606382
 Sum of electronic and thermal Energies=              -257.602852
 Sum of electronic and thermal Enthalpies=            -257.601908
 Sum of electronic and thermal Free Energies=         -257.632505

                     E (Thermal)             CV                S
                      KCal/Mol        Cal/Mol-Kelvin    Cal/Mol-Kelvin
 Total                   32.125             11.405             64.397
 Electronic               0.000              0.000              0.000
 Translational            0.889              2.981             38.656
 Rotational               0.889              2.981             23.831
 Vibrational             30.347              5.444              1.910
 Vibration     1          0.836              1.295              0.711

 Optimization completed.
    -- Stationary point found.
 Normal termination of Gaussian 09 at Wed Dec 18 20:12:41 2013.
