 Gaussian 09, Revision D.01,
 Gaussian 09:  EM64L-G09RevD.01 24-Apr-2013

 ------------------------------
 #CCD/6-31+G** opt freq density
 ------------------------------

 -----------------------------------------------------------------
 1H-tetrazole CH2N4 casno=288948 state=1 config=1 method=6 basis=4
 -----------------------------------------------------------------
 Symbolic Z-matrix:
 Charge =  0 Multiplicity = 1

 SCF Done:  E(RHF) =  -256.767607422     A.U. after   15 cycles
 E2 =    -0.7933570730D+00 EUMP2 =    -0.25756096449458D+03
 SCF Done:  E(RHF) =  -256.763473977     A.U. after   13 cycles
 E2 =    -0.8043258264D+00 EUMP2 =    -0.25756779980291D+03
 SCF Done:  E(RHF) =  -256.762825282     A.U. after   12 cycles
 E2 =    -0.8053147699D+00 EUMP2 =    -0.25756814005239D+03
 SCF Done:  E(RHF) =  -256.762683631     A.U. after   12 cycles
 E2 =    -0.8055722283D+00 EUMP2 =    -0.25756825585974D+03
 SCF Done:  E(RHF) =  -256.762808473     A.U. after   10 cycles
 E2 =    -0.8054225634D+00 EUMP2 =    -0.25756823103609D+03
 Optimization completed.
    -- Stationary point found.
 Normal termination of Gaussian 09 at Wed Dec 18 21:27:42 2013.

 ----------------------------------------------------------------------
 #N Geom=AllCheck Guess=TCheck SCRF=Check GenChk RCCD(FC)/6-31+G(d,p) F
 req
 ----------------------------------------------------------------------

 Structure from the checkpoint file:  "/tmp/rdj3/g09-13683/Gau-19630.chk"
 -----------------------------------------------------------------
 1H-tetrazole CH2N4 casno=288948 state=1 config=1 method=6 basis=4
 -----------------------------------------------------------------
 Charge =  0 Multiplicity = 1

                         Standard orientation:
 ---------------------------------------------------------------------
 Center     Atomic      Atomic             Coordinates (Angstroms)
 Number     Number       Type             X           Y           Z
 ---------------------------------------------------------------------
      1          6           0        1.068243    0.234752    0.000000
      2          7           0        0.000000    1.054906    0.000000
      3          7           0       -1.118890    0.305282    0.000000
      4          7           0       -0.725656   -0.927401    0.000000
      5          7           0        0.638408   -1.008044    0.000000
      6          1           0        2.092679    0.559244    0.000000
      7          1           0       -0.059175    2.059045    0.000000
 ---------------------------------------------------------------------

 SCF Done:  E(RHF) =  -256.762808473     A.U. after    1 cycles
 E2 =    -0.8054225632D+00 EUMP2 =    -0.25756823103583D+03
 SCF Done:  E(RHF) =  -256.762763258     A.U. after    9 cycles
 E2 =    -0.8054807474D+00 EUMP2 =    -0.25756824400529D+03
 SCF Done:  E(RHF) =  -256.762850117     A.U. after   10 cycles
 E2 =    -0.8053646021D+00 EUMP2 =    -0.25756821471893D+03
 SCF Done:  E(RHF) =  -256.762778046     A.U. after   10 cycles
 E2 =    -0.8054692914D+00 EUMP2 =    -0.25756824733774D+03
 SCF Done:  E(RHF) =  -256.762836364     A.U. after   11 cycles
 E2 =    -0.8053758441D+00 EUMP2 =    -0.25756821220815D+03
 E2 =    -0.8054226991D+00 EUMP2 =    -0.25756823082925D+03
 E2 =    -0.8054332778D+00 EUMP2 =    -0.25756823256406D+03
 E2 =    -0.8054119289D+00 EUMP2 =    -0.25756822730141D+03
 E2 =    -0.8054509671D+00 EUMP2 =    -0.25756822992107D+03
 E2 =    -0.8053943599D+00 EUMP2 =    -0.25756822838514D+03
 E2 =    -0.8054226413D+00 EUMP2 =    -0.25756823089727D+03
 E2 =    -0.8053275666D+00 EUMP2 =    -0.25756820686421D+03
 E2 =    -0.8055177627D+00 EUMP2 =    -0.25756825326556D+03
 E2 =    -0.8055358217D+00 EUMP2 =    -0.25756826847485D+03
 E2 =    -0.8053093606D+00 EUMP2 =    -0.25756819171585D+03
 E2 =    -0.8054085347D+00 EUMP2 =    -0.25756823793635D+03
 E2 =    -0.8054367075D+00 EUMP2 =    -0.25756822258129D+03
 E2 =    -0.8052857586D+00 EUMP2 =    -0.25756818860168D+03
 E2 =    -0.8055595411D+00 EUMP2 =    -0.25756827133752D+03
 E2 =    -0.8054226645D+00 EUMP2 =    -0.25756823084115D+03
 E2 =    -0.8054558823D+00 EUMP2 =    -0.25756822866092D+03
 E2 =    -0.8053893294D+00 EUMP2 =    -0.25756823195870D+03
 E2 =    -0.8053382158D+00 EUMP2 =    -0.25756820747294D+03
 E2 =    -0.8055070326D+00 EUMP2 =    -0.25756825231863D+03
 E2 =    -0.8054226419D+00 EUMP2 =    -0.25756823086020D+03
 SCF Done:  E(RHF) =  -256.762798617     A.U. after    7 cycles
 E2 =    -0.8054325551D+00 EUMP2 =    -0.25756823117254D+03
 SCF Done:  E(RHF) =  -256.762816983     A.U. after    8 cycles
 E2 =    -0.8054126023D+00 EUMP2 =    -0.25756822958546D+03
 SCF Done:  E(RHF) =  -256.762804920     A.U. after    8 cycles
 E2 =    -0.8054264878D+00 EUMP2 =    -0.25756823140767D+03
 SCF Done:  E(RHF) =  -256.762811691     A.U. after    9 cycles
 E2 =    -0.8054186646D+00 EUMP2 =    -0.25756823035559D+03
 SCF Done:  E(RHF) =  -256.762808416     A.U. after    7 cycles
 E2 =    -0.8054225813D+00 EUMP2 =    -0.25756823099689D+03
 SCF Done:  E(RHF) =  -256.762810255     A.U. after    8 cycles
 E2 =    -0.8054197611D+00 EUMP2 =    -0.25756823001578D+03
 SCF Done:  E(RHF) =  -256.762806416     A.U. after    8 cycles
 E2 =    -0.8054254244D+00 EUMP2 =    -0.25756823184045D+03
 SCF Done:  E(RHF) =  -256.762784994     A.U. after    7 cycles
 E2 =    -0.8054517115D+00 EUMP2 =    -0.25756823670576D+03
 SCF Done:  E(RHF) =  -256.762830150     A.U. after    9 cycles
 E2 =    -0.8053934416D+00 EUMP2 =    -0.25756822359201D+03
 SCF Done:  E(RHF) =  -256.762808436     A.U. after    6 cycles
 E2 =    -0.8054225774D+00 EUMP2 =    -0.25756823101296D+03

 Alpha  occ. eigenvalues --  -15.69694 -15.67817 -15.66079 -15.61863 -11.34851
 Alpha  occ. eigenvalues --   -1.50129  -1.26313  -1.20201  -0.91426  -0.89577
 Alpha  occ. eigenvalues --   -0.80562  -0.68273  -0.68012  -0.57306  -0.48375
 Alpha  occ. eigenvalues --   -0.47754  -0.45956  -0.42328
 Alpha virt. eigenvalues --    0.05147   0.08218   0.08737   0.10067   0.12914
 Alpha virt. eigenvalues --    0.14744   0.16241   0.17478   0.18923   0.20639
 Alpha virt. eigenvalues --    0.22237   0.23556   0.24622   0.27348   0.28946

 Mulliken charges:
               1
     1  C    0.076265
     2  N   -0.329623
     3  N   -0.002678
     4  N   -0.016373
     5  N   -0.273862
     6  H    0.192912
     7  H    0.353359
 Sum of Mulliken charges =   0.00000

 Dipole moment (field-independent basis, Debye):
    X=              2.6280    Y=              4.9815    Z=              0.0017  Tot=              5.6322
 Quadrupole moment (field-independent basis, Debye-Ang):
   XX=            -29.8676   YY=            -27.3528   ZZ=            -29.2429
   XY=              1.9967   XZ=             -0.0001   YZ=              0.0040

                      1                      2                      3
                     A"                     A"                     A"
 Frequencies --    554.8567               690.1155               728.9408
 Red. masses --      2.0083                 2.0005                 6.5590
 Frc consts  --      0.3643                 0.5613                 2.0534
 IR Inten    --     83.6769                13.6110                11.6311

                      4                      5                      6
                     A"                     A'                     A'
 Frequencies --    859.0764               993.1426              1028.0036
 Red. masses --      1.2834                 5.2955                 7.1733
 Frc consts  --      0.5581                 3.0774                 4.4664
 IR Inten    --     26.5295                 1.5855                 0.6211

                      7                      8                      9
                     A'                     A'                     A'
 Frequencies --   1097.1705              1125.3471              1180.7861
 Red. masses --      6.2828                 2.7392                 1.7431
 Frc consts  --      4.4561                 2.0438                 1.4319
 IR Inten    --     24.9565                24.1214                12.0317

                     10                     11                     12
                     A'                     A'                     A'
 Frequencies --   1317.4133              1345.1594              1530.1346
 Red. masses --      3.0310                 7.1774                 2.9806
 Frc consts  --      3.0994                 7.6518                 4.1116
 IR Inten    --      0.6732                17.8964                19.7021

                     13                     14                     15
                     A'                     A'                     A'
 Frequencies --   1566.0516              3375.8405              3763.1035
 Red. masses --      3.5170                 1.1018                 1.0842
 Frc consts  --      5.0820                 7.3981                 9.0463
 IR Inten    --     20.6140                 1.6134               124.4926

 - Thermochemistry -
 -------------------
 Temperature   298.150 Kelvin.  Pressure   1.00000 Atm.
 Atom     1 has atomic number  6 and mass  12.00000

 Molecular mass:    70.02795 amu.
 Principal axes and moments of inertia in atomic units:
                           1         2         3
     Eigenvalues --   171.66256 174.65151 346.31407
           X            0.84213   0.53927   0.00000
           Y           -0.53927   0.84213   0.00000
           Z            0.00000   0.00000   1.00000
 This molecule is an asymmetric top.
 Rotational symmetry number  1.
 Rotational temperatures (Kelvin)      0.50456     0.49592     0.25010
 Rotational constants (GHZ):          10.51331    10.33338     5.21128
 Zero-point vibrational energy     126535.8 (Joules/Mol)
                                   30.24279 (Kcal/Mol)
 Warning -- explicit consideration of   1 degrees of freedom as
           vibrations may cause significant error
 Vibrational temperatures:    798.31   992.92  1048.78  1236.02  1428.91
          (Kelvin)           1479.07  1578.58  1619.12  1698.89  1895.46
                             1935.38  2201.52  2253.20  4857.08  5414.26

 Zero-point correction=                           0.048195 (Hartree/Particle)
 Thermal correction to Energy=                    0.051660
 Thermal correction to Enthalpy=                  0.052604
 Thermal correction to Gibbs Free Energy=         0.022095
 Sum of electronic and zero-point Energies=           -257.517473
 Sum of electronic and thermal Energies=              -257.514008
 Sum of electronic and thermal Enthalpies=            -257.513064
 Sum of electronic and thermal Free Energies=         -257.543573

                     E (Thermal)             CV                S
                      KCal/Mol        Cal/Mol-Kelvin    Cal/Mol-Kelvin
 Total                   32.417             11.157             64.212
 Electronic               0.000              0.000              0.000
 Translational            0.889              2.981             38.656
 Rotational               0.889              2.981             23.855
 Vibrational             30.640              5.196              1.701
 Vibration     1          0.910              1.129              0.534

 Optimization completed.
    -- Stationary point found.
 Normal termination of Gaussian 09 at Wed Dec 18 23:23:16 2013.
