 Gaussian 09, Revision D.01,
 Gaussian 09:  EM64L-G09RevD.01 24-Apr-2013

 -----------------------------
 #CCD/cc-pVDZ opt freq density
 -----------------------------

 -----------------------------------------------------------------
 1H-tetrazole CH2N4 casno=288948 state=1 config=1 method=6 basis=5
 -----------------------------------------------------------------
 Symbolic Z-matrix:
 Charge =  0 Multiplicity = 1

 SCF Done:  E(RHF) =  -256.780056734     A.U. after   15 cycles
 E2 =    -0.7749059228D+00 EUMP2 =    -0.25755496265635D+03
 SCF Done:  E(RHF) =  -256.775531398     A.U. after   13 cycles
 E2 =    -0.7868065126D+00 EUMP2 =    -0.25756233791083D+03
 SCF Done:  E(RHF) =  -256.775067752     A.U. after   11 cycles
 E2 =    -0.7875486935D+00 EUMP2 =    -0.25756261644558D+03
 SCF Done:  E(RHF) =  -256.774969794     A.U. after   11 cycles
 E2 =    -0.7877421317D+00 EUMP2 =    -0.25756271192599D+03
 SCF Done:  E(RHF) =  -256.775014575     A.U. after    9 cycles
 E2 =    -0.7877032509D+00 EUMP2 =    -0.25756271782589D+03
 Optimization completed.
    -- Stationary point found.
 Normal termination of Gaussian 09 at Wed Dec 18 23:27:14 2013.

 ---------------------------------------------------------------------
 #N Geom=AllCheck Guess=TCheck SCRF=Check GenChk RCCD(FC)/CC-pVDZ Freq
 ---------------------------------------------------------------------

 Structure from the checkpoint file:  "/tmp/rdj3/g09-13683/Gau-24518.chk"
 -----------------------------------------------------------------
 1H-tetrazole CH2N4 casno=288948 state=1 config=1 method=6 basis=5
 -----------------------------------------------------------------
 Charge =  0 Multiplicity = 1

                         Standard orientation:
 ---------------------------------------------------------------------
 Center     Atomic      Atomic             Coordinates (Angstroms)
 Number     Number       Type             X           Y           Z
 ---------------------------------------------------------------------
      1          6           0        1.069160    0.229820    0.000000
      2          7           0        0.000000    1.056078    0.000000
      3          7           0       -1.117229    0.309149    0.000000
      4          7           0       -0.727473   -0.923310    0.000000
      5          7           0        0.635334   -1.014122    0.000000
      6          1           0        2.106221    0.558946    0.000000
      7          1           0       -0.055601    2.067564    0.000000
 ---------------------------------------------------------------------

 SCF Done:  E(RHF) =  -256.775014575     A.U. after    1 cycles
 E2 =    -0.7877032513D+00 EUMP2 =    -0.25756271782630D+03
 SCF Done:  E(RHF) =  -256.774973435     A.U. after    9 cycles
 E2 =    -0.7877582886D+00 EUMP2 =    -0.25756273172375D+03
 SCF Done:  E(RHF) =  -256.775052219     A.U. after    9 cycles
 E2 =    -0.7876484082D+00 EUMP2 =    -0.25756270062753D+03
 SCF Done:  E(RHF) =  -256.774985324     A.U. after   10 cycles
 E2 =    -0.7877488469D+00 EUMP2 =    -0.25756273417065D+03
 SCF Done:  E(RHF) =  -256.775041306     A.U. after   11 cycles
 E2 =    -0.7876576467D+00 EUMP2 =    -0.25756269895274D+03
 E2 =    -0.7877033660D+00 EUMP2 =    -0.25756271759294D+03
 E2 =    -0.7877094877D+00 EUMP2 =    -0.25756271916703D+03
 E2 =    -0.7876970804D+00 EUMP2 =    -0.25756271427056D+03
 E2 =    -0.7877317148D+00 EUMP2 =    -0.25756271825649D+03
 E2 =    -0.7876749702D+00 EUMP2 =    -0.25756271366001D+03
 E2 =    -0.7877033056D+00 EUMP2 =    -0.25756271766510D+03
 E2 =    -0.7876105321D+00 EUMP2 =    -0.25756269503308D+03
 E2 =    -0.7877961489D+00 EUMP2 =    -0.25756273863341D+03
 E2 =    -0.7878158530D+00 EUMP2 =    -0.25756275388762D+03
 E2 =    -0.7875906943D+00 EUMP2 =    -0.25756267984995D+03
 E2 =    -0.7876908549D+00 EUMP2 =    -0.25756272452302D+03
 E2 =    -0.7877157400D+00 EUMP2 =    -0.25756270953356D+03
 E2 =    -0.7875690707D+00 EUMP2 =    -0.25756267640536D+03
 E2 =    -0.7878375889D+00 EUMP2 =    -0.25756275707742D+03
 E2 =    -0.7877033390D+00 EUMP2 =    -0.25756271761403D+03
 E2 =    -0.7877337452D+00 EUMP2 =    -0.25756271491402D+03
 E2 =    -0.7876728264D+00 EUMP2 =    -0.25756271928022D+03
 E2 =    -0.7876120016D+00 EUMP2 =    -0.25756269459339D+03
 E2 =    -0.7877946201D+00 EUMP2 =    -0.25756273878104D+03
 E2 =    -0.7877033206D+00 EUMP2 =    -0.25756271763760D+03
 SCF Done:  E(RHF) =  -256.774996488     A.U. after    7 cycles
 E2 =    -0.7877198547D+00 EUMP2 =    -0.25756271634302D+03
 SCF Done:  E(RHF) =  -256.775031370     A.U. after    7 cycles
 E2 =    -0.7876866663D+00 EUMP2 =    -0.25756271803602D+03
 SCF Done:  E(RHF) =  -256.775008213     A.U. after    7 cycles
 E2 =    -0.7877096420D+00 EUMP2 =    -0.25756271785520D+03
 SCF Done:  E(RHF) =  -256.775020610     A.U. after    8 cycles
 E2 =    -0.7876968869D+00 EUMP2 =    -0.25756271749667D+03
 SCF Done:  E(RHF) =  -256.775014515     A.U. after    6 cycles
 E2 =    -0.7877032677D+00 EUMP2 =    -0.25756271778313D+03
 SCF Done:  E(RHF) =  -256.775016726     A.U. after    6 cycles
 E2 =    -0.7877003299D+00 EUMP2 =    -0.25756271705605D+03
 SCF Done:  E(RHF) =  -256.775012156     A.U. after    7 cycles
 E2 =    -0.7877062341D+00 EUMP2 =    -0.25756271839038D+03
 SCF Done:  E(RHF) =  -256.774986387     A.U. after    7 cycles
 E2 =    -0.7877358803D+00 EUMP2 =    -0.25756272226751D+03
 SCF Done:  E(RHF) =  -256.775041017     A.U. after    8 cycles
 E2 =    -0.7876706319D+00 EUMP2 =    -0.25756271164879D+03
 SCF Done:  E(RHF) =  -256.775014537     A.U. after    6 cycles
 E2 =    -0.7877032626D+00 EUMP2 =    -0.25756271780003D+03

 Alpha  occ. eigenvalues --  -15.68433 -15.66211 -15.64422 -15.60495 -11.34377
 Alpha  occ. eigenvalues --   -1.49211  -1.25414  -1.19204  -0.90334  -0.88616
 Alpha  occ. eigenvalues --   -0.79401  -0.67238  -0.67162  -0.56425  -0.47552
 Alpha  occ. eigenvalues --   -0.46879  -0.45150  -0.41457
 Alpha virt. eigenvalues --    0.13916   0.15582   0.18780   0.19619   0.34650
 Alpha virt. eigenvalues --    0.38046   0.42797   0.48472   0.59975   0.66393
 Alpha virt. eigenvalues --    0.66802   0.75610   0.79641   0.82843   0.87096

 Mulliken charges:
               1
     1  C    0.210261
     2  N   -0.094784
     3  N   -0.054370
     4  N   -0.085757
     5  N   -0.199375
     6  H    0.078416
     7  H    0.145607
 Sum of Mulliken charges =   0.00000

 Dipole moment (field-independent basis, Debye):
    X=              2.4159    Y=              4.7333    Z=              0.0016  Tot=              5.3142
 Quadrupole moment (field-independent basis, Debye-Ang):
   XX=            -29.1074   YY=            -26.5503   ZZ=            -28.3831
   XY=              1.7708   XZ=             -0.0001   YZ=              0.0037

                      1                      2                      3
                     A"                     A"                     A"
 Frequencies --    573.4499               698.9781               748.7927
 Red. masses --      1.7869                 2.0743                 7.0468
 Frc consts  --      0.3462                 0.5971                 2.3279
 IR Inten    --     81.3764                 7.5394                 9.8257

                      4                      5                      6
                     A"                     A'                     A'
 Frequencies --    875.7726               991.3655              1028.1805
 Red. masses --      1.3438                 4.3521                 6.4781
 Frc consts  --      0.6072                 2.5201                 4.0349
 IR Inten    --     18.4453                 1.7771                 2.3045

                      7                      8                      9
                     A'                     A'                     A'
 Frequencies --   1096.8926              1121.1832              1166.1849
 Red. masses --      4.7147                 2.3449                 2.0053
 Frc consts  --      3.3422                 1.7367                 1.6068
 IR Inten    --     22.3964                26.1849                 9.7650

                     10                     11                     12
                     A'                     A'                     A'
 Frequencies --   1306.7518              1350.2857              1520.0777
 Red. masses --      3.2031                 8.3640                 2.9651
 Frc consts  --      3.2226                 8.9850                 4.0367
 IR Inten    --      0.0208                16.0858                18.1658

                     13                     14                     15
                     A'                     A'                     A'
 Frequencies --   1558.8921              3331.5020              3710.2179
 Red. masses --      4.4425                 1.1023                 1.0849
 Frc consts  --      6.3608                 7.2083                 8.7993
 IR Inten    --     14.2750                 1.1818               117.8979

 - Thermochemistry -
 -------------------
 Temperature   298.150 Kelvin.  Pressure   1.00000 Atm.
 Atom     1 has atomic number  6 and mass  12.00000

 Molecular mass:    70.02795 amu.
 Principal axes and moments of inertia in atomic units:
                           1         2         3
     Eigenvalues --   171.56360 175.28804 346.85164
           X            0.77773   0.62860   0.00000
           Y           -0.62860   0.77773   0.00000
           Z            0.00000   0.00000   1.00000
 This molecule is an asymmetric top.
 Rotational symmetry number  1.
 Rotational temperatures (Kelvin)      0.50485     0.49412     0.24971
 Rotational constants (GHZ):          10.51937    10.29586     5.20321
 Zero-point vibrational energy     126077.6 (Joules/Mol)
                                   30.13327 (Kcal/Mol)
 Warning -- explicit consideration of   1 degrees of freedom as
           vibrations may cause significant error
 Vibrational temperatures:    825.07  1005.67  1077.34  1260.04  1426.35
          (Kelvin)           1479.32  1578.18  1613.13  1677.88  1880.12
                             1942.76  2187.05  2242.90  4793.28  5338.17

 Zero-point correction=                           0.048020 (Hartree/Particle)
 Thermal correction to Energy=                    0.051462
 Thermal correction to Enthalpy=                  0.052406
 Thermal correction to Gibbs Free Energy=         0.021929
 Sum of electronic and zero-point Energies=           -257.515565
 Sum of electronic and thermal Energies=              -257.512124
 Sum of electronic and thermal Enthalpies=            -257.511180
 Sum of electronic and thermal Free Energies=         -257.541657

                     E (Thermal)             CV                S
                      KCal/Mol        Cal/Mol-Kelvin    Cal/Mol-Kelvin
 Total                   32.293             11.062             64.145
 Electronic               0.000              0.000              0.000
 Translational            0.889              2.981             38.656
 Rotational               0.889              2.981             23.860
 Vibrational             30.515              5.100              1.629
 Vibration     1          0.930              1.089              0.498

 Optimization completed.
    -- Stationary point found.
 Normal termination of Gaussian 09 at Thu Dec 19 00:17:31 2013.
