 Gaussian 09, Revision D.01,
 Gaussian 09:  EM64L-G09RevD.01 24-Apr-2013

 --------------------------------------
 #CCD/cc-pVTZ opt=z-matrix freq density
 --------------------------------------

 -----------------------------------------------------------------
 1H-tetrazole CH2N4 casno=288948 state=1 config=1 method=6 basis=6
 -----------------------------------------------------------------
 Symbolic Z-matrix:
 Charge =  0 Multiplicity = 1

 SCF Done:  E(RHF) =  -256.848466948     A.U. after   14 cycles
 E2 =    -0.9516515969D+00 EUMP2 =    -0.25780011854461D+03
 SCF Done:  E(RHF) =  -256.845847171     A.U. after   12 cycles
 E2 =    -0.9581132887D+00 EUMP2 =    -0.25780396046002D+03
 SCF Done:  E(RHF) =  -256.845452442     A.U. after   10 cycles
 E2 =    -0.9587789403D+00 EUMP2 =    -0.25780423138205D+03
 SCF Done:  E(RHF) =  -256.845352886     A.U. after   11 cycles
 E2 =    -0.9587402400D+00 EUMP2 =    -0.25780409312556D+03
 SCF Done:  E(RHF) =  -256.845369377     A.U. after    8 cycles
 E2 =    -0.9589476558D+00 EUMP2 =    -0.25780431703304D+03
 SCF Done:  E(RHF) =  -256.845417510     A.U. after   10 cycles
 E2 =    -0.9589139892D+00 EUMP2 =    -0.25780433149893D+03
 SCF Done:  E(RHF) =  -256.845380259     A.U. after    8 cycles
 E2 =    -0.9589397604D+00 EUMP2 =    -0.25780432001980D+03
 SCF Done:  E(RHF) =  -256.845382480     A.U. after   10 cycles
 E2 =    -0.9589750247D+00 EUMP2 =    -0.25780435750486D+03
 SCF Done:  E(RHF) =  -256.845398086     A.U. after    7 cycles
 E2 =    -0.9589167000D+00 EUMP2 =    -0.25780431478617D+03
 SCF Done:  E(RHF) =  -256.845402294     A.U. after    8 cycles
 E2 =    -0.9589207043D+00 EUMP2 =    -0.25780432299878D+03
 E2 =    -0.9589150493D+00 EUMP2 =    -0.25780431555087D+03
 E2 =    -0.9589132386D+00 EUMP2 =    -0.25780431892386D+03
 E2 =    -0.9589129090D+00 EUMP2 =    -0.25780431482759D+03
 E2 =    -0.9589123643D+00 EUMP2 =    -0.25780431713165D+03
 E2 =    -0.9589125239D+00 EUMP2 =    -0.25780431469400D+03
 Optimization completed.
    -- Stationary point found.
 Normal termination of Gaussian 09 at Tue Dec 10 19:55:05 2013.

 ---------------------------------------------------------------------
 #N Geom=AllCheck Guess=TCheck SCRF=Check GenChk RCCD(FC)/CC-pVTZ Freq
 ---------------------------------------------------------------------

 Structure from the checkpoint file:  "/tmp/rdj3/g09-31683/Gau-5013.chk"
 -----------------------------------------------------------------
 1H-tetrazole CH2N4 casno=288948 state=1 config=1 method=6 basis=6
 -----------------------------------------------------------------
 Charge =  0 Multiplicity = 1

                         Standard orientation:
 ---------------------------------------------------------------------
 Center     Atomic      Atomic             Coordinates (Angstroms)
 Number     Number       Type             X           Y           Z
 ---------------------------------------------------------------------
      1          6           0        1.061163    0.230803    0.000000
      2          7           0        0.000000    1.048624    0.000000
      3          7           0       -1.110040    0.303552    0.000000
      4          7           0       -0.722335   -0.918383    0.000000
      5          7           0        0.633212   -1.003562    0.000000
      6          1           0        2.084571    0.554503    0.000000
      7          1           0       -0.057407    2.049066    0.000000
 ---------------------------------------------------------------------

 E2 =    -0.9589125055D+00 EUMP2 =    -0.25780431467561D+03
 E2 =    -0.9589617912D+00 EUMP2 =    -0.25780432981292D+03
 E2 =    -0.9588634111D+00 EUMP2 =    -0.25780429616961D+03
 E2 =    -0.9589550118D+00 EUMP2 =    -0.25780433196566D+03
 E2 =    -0.9588699933D+00 EUMP2 =    -0.25780429481777D+03
 E2 =    -0.9589063178D+00 EUMP2 =    -0.25780432068345D+03
 E2 =    -0.9589187663D+00 EUMP2 =    -0.25780430702899D+03
 E2 =    -0.9587885047D+00 EUMP2 =    -0.25780426908338D+03
 E2 =    -0.9590366949D+00 EUMP2 =    -0.25780435807044D+03
 E2 =    -0.9589125627D+00 EUMP2 =    -0.25780431443619D+03
 E2 =    -0.9589375500D+00 EUMP2 =    -0.25780431357575D+03
 E2 =    -0.9588875408D+00 EUMP2 =    -0.25780431428894D+03
 E2 =    -0.9588347878D+00 EUMP2 =    -0.25780428797298D+03
 E2 =    -0.9589903166D+00 EUMP2 =    -0.25780433904245D+03
 E2 =    -0.9589125416D+00 EUMP2 =    -0.25780431445717D+03
 SCF Done:  E(RHF) =  -256.845392143     A.U. after    6 cycles
 E2 =    -0.9589223719D+00 EUMP2 =    -0.25780431451499D+03
 SCF Done:  E(RHF) =  -256.845410882     A.U. after    7 cycles
 E2 =    -0.9589026322D+00 EUMP2 =    -0.25780431351460D+03
 SCF Done:  E(RHF) =  -256.845398681     A.U. after    6 cycles
 E2 =    -0.9589164038D+00 EUMP2 =    -0.25780431508519D+03
 SCF Done:  E(RHF) =  -256.845405327     A.U. after    7 cycles
 E2 =    -0.9589085952D+00 EUMP2 =    -0.25780431392241D+03
 SCF Done:  E(RHF) =  -256.845402112     A.U. after    6 cycles
 E2 =    -0.9589124929D+00 EUMP2 =    -0.25780431460494D+03
 SCF Done:  E(RHF) =  -256.845404184     A.U. after    6 cycles
 E2 =    -0.9589093422D+00 EUMP2 =    -0.25780431352667D+03
 SCF Done:  E(RHF) =  -256.845399883     A.U. after    6 cycles
 E2 =    -0.9589156807D+00 EUMP2 =    -0.25780431556324D+03
 SCF Done:  E(RHF) =  -256.845379712     A.U. after    7 cycles
 E2 =    -0.9589417234D+00 EUMP2 =    -0.25780432143557D+03
 SCF Done:  E(RHF) =  -256.845422838     A.U. after    7 cycles
 E2 =    -0.9588832441D+00 EUMP2 =    -0.25780430608207D+03
 SCF Done:  E(RHF) =  -256.845402134     A.U. after    5 cycles
 E2 =    -0.9589124901D+00 EUMP2 =    -0.25780431462388D+03

 Alpha  occ. eigenvalues --  -15.67992 -15.65992 -15.64329 -15.60087 -11.33403
 Alpha  occ. eigenvalues --   -1.49900  -1.25767  -1.19609  -0.90797  -0.89079
 Alpha  occ. eigenvalues --   -0.80132  -0.68010  -0.67742  -0.56895  -0.47769
 Alpha  occ. eigenvalues --   -0.47100  -0.45583  -0.41914
 Alpha virt. eigenvalues --    0.11633   0.13485   0.15792   0.17996   0.26961
 Alpha virt. eigenvalues --    0.29465   0.35409   0.41115   0.42353   0.47480
 Alpha virt. eigenvalues --    0.51611   0.55494   0.56504   0.57568   0.59270

 Mulliken charges:
               1
     1  C   -0.078703
     2  N   -0.032879
     3  N   -0.066442
     4  N   -0.075210
     5  N   -0.150365
     6  H    0.185104
     7  H    0.218495
 Sum of Mulliken charges =   0.00000

 Dipole moment (field-independent basis, Debye):
    X=              2.4566    Y=              4.7582    Z=              0.0016  Tot=              5.3549
 Quadrupole moment (field-independent basis, Debye-Ang):
   XX=            -29.0006   YY=            -26.5130   ZZ=            -28.4583
   XY=              1.8534   XZ=             -0.0001   YZ=              0.0038

                      1                      2                      3
                     A"                     A"                     A"
 Frequencies --    595.9852               706.0849               756.6972
 Red. masses --      1.7341                 2.0585                 7.4757
 Frc consts  --      0.3629                 0.6047                 2.5220
 IR Inten    --     82.5473                 7.0714                 9.7147

                      4                      5                      6
                     A"                     A'                     A'
 Frequencies --    903.6223               997.6706              1033.7174
 Red. masses --      1.3653                 4.8768                 6.9635
 Frc consts  --      0.6568                 2.8600                 4.3841
 IR Inten    --     17.2780                 2.0100                 1.7179

                      7                      8                      9
                     A'                     A'                     A'
 Frequencies --   1093.8044              1120.9692              1175.5286
 Red. masses --      5.1109                 2.6264                 1.9054
 Frc consts  --      3.6027                 1.9445                 1.5513
 IR Inten    --     22.1340                24.6901                12.9474

                     10                     11                     12
                     A'                     A'                     A'
 Frequencies --   1313.0844              1348.4066              1518.8954
 Red. masses --      2.8747                 8.4559                 2.9634
 Frc consts  --      2.9203                 9.0584                 4.0281
 IR Inten    --      0.0985                15.3706                16.6518

                     13                     14                     15
                     A'                     A'                     A'
 Frequencies --   1561.3456              3327.8036              3729.9561
 Red. masses --      3.8152                 1.1026                 1.0843
 Frc consts  --      5.4799                 7.1942                 8.8880
 IR Inten    --     16.8142                 1.3965               117.1116

 - Thermochemistry -
 -------------------
 Temperature   298.150 Kelvin.  Pressure   1.00000 Atm.
 Atom     1 has atomic number  6 and mass  12.00000

 Molecular mass:    70.02795 amu.
 Principal axes and moments of inertia in atomic units:
                           1         2         3
     Eigenvalues --   169.27850 172.47274 341.75124
           X            0.82595   0.56374   0.00000
           Y           -0.56374   0.82595   0.00000
           Z            0.00000   0.00000   1.00000
 This molecule is an asymmetric top.
 Rotational symmetry number  1.
 Rotational temperatures (Kelvin)      0.51166     0.50219     0.25344
 Rotational constants (GHZ):          10.66137    10.46392     5.28086
 Zero-point vibrational energy     126705.9 (Joules/Mol)
                                   30.28344 (Kcal/Mol)
 Warning -- explicit consideration of   1 degrees of freedom as
           vibrations may cause significant error
 Vibrational temperatures:    857.49  1015.90  1088.72  1300.11  1435.42
          (Kelvin)           1487.29  1573.74  1612.82  1691.32  1889.23
                             1940.05  2185.35  2246.43  4787.96  5366.57

 Zero-point correction=                           0.048260 (Hartree/Particle)
 Thermal correction to Energy=                    0.051674
 Thermal correction to Enthalpy=                  0.052619
 Thermal correction to Gibbs Free Energy=         0.022200
 Sum of electronic and zero-point Energies=           -257.742326
 Sum of electronic and thermal Energies=              -257.738911
 Sum of electronic and thermal Enthalpies=            -257.737967
 Sum of electronic and thermal Free Energies=         -257.768386

                     E (Thermal)             CV                S
                      KCal/Mol        Cal/Mol-Kelvin    Cal/Mol-Kelvin
 Total                   32.426             10.928             64.022
 Electronic               0.000              0.000              0.000
 Translational            0.889              2.981             38.656
 Rotational               0.889              2.981             23.816
 Vibrational             30.649              4.967              1.550
 Vibration     1          0.954              1.040              0.457

 Optimization completed.
    -- Stationary point found.
 Normal termination of Gaussian 09 at Wed Dec 11 17:04:43 2013.
