 Gaussian 09, Revision D.01,
 Gaussian 09:  EM64L-G09RevD.01 24-Apr-2013

 --------------------------------------
 #CCD/6-311G* opt=z-matrix freq density
 --------------------------------------

 -----------------------------------------------------------------
 1H-tetrazole CH2N4 casno=288948 state=1 config=1 method=6 basis=7
 -----------------------------------------------------------------
 Symbolic Z-matrix:
 Charge =  0 Multiplicity = 1

 SCF Done:  E(RHF) =  -256.810747258     A.U. after   14 cycles
 E2 =    -0.8105285881D+00 EUMP2 =    -0.25762127584607D+03
 SCF Done:  E(RHF) =  -256.807185575     A.U. after   12 cycles
 E2 =    -0.8190843090D+00 EUMP2 =    -0.25762626988367D+03
 SCF Done:  E(RHF) =  -256.806796017     A.U. after   10 cycles
 E2 =    -0.8197149879D+00 EUMP2 =    -0.25762651100512D+03
 SCF Done:  E(RHF) =  -256.806533656     A.U. after   12 cycles
 E2 =    -0.8198722957D+00 EUMP2 =    -0.25762640595210D+03
 SCF Done:  E(RHF) =  -256.806691611     A.U. after    9 cycles
 E2 =    -0.8199130765D+00 EUMP2 =    -0.25762660468730D+03
 SCF Done:  E(RHF) =  -256.806754966     A.U. after   11 cycles
 E2 =    -0.8198756043D+00 EUMP2 =    -0.25762663057050D+03
 SCF Done:  E(RHF) =  -256.806692892     A.U. after    9 cycles
 E2 =    -0.8199212373D+00 EUMP2 =    -0.25762661412929D+03
 SCF Done:  E(RHF) =  -256.806789957     A.U. after    9 cycles
 E2 =    -0.8197729064D+00 EUMP2 =    -0.25762656286301D+03
 SCF Done:  E(RHF) =  -256.806722984     A.U. after    9 cycles
 E2 =    -0.8198866458D+00 EUMP2 =    -0.25762660962974D+03
 SCF Done:  E(RHF) =  -256.806749979     A.U. after   11 cycles
 E2 =    -0.8198748176D+00 EUMP2 =    -0.25762662479696D+03
 E2 =    -0.8198953311D+00 EUMP2 =    -0.25762661162869D+03
 E2 =    -0.8198238153D+00 EUMP2 =    -0.25762657709923D+03
 E2 =    -0.8198906422D+00 EUMP2 =    -0.25762660965482D+03
 E2 =    -0.8198825369D+00 EUMP2 =    -0.25762660723289D+03
 E2 =    -0.8198757166D+00 EUMP2 =    -0.25762660364573D+03
 E2 =    -0.8198907974D+00 EUMP2 =    -0.25762660963725D+03
 E2 =    -0.8198890582D+00 EUMP2 =    -0.25762660947095D+03
 E2 =    -0.8198860462D+00 EUMP2 =    -0.25762660802423D+03
 E2 =    -0.8198766024D+00 EUMP2 =    -0.25762660809316D+03
 E2 =    -0.8198928550D+00 EUMP2 =    -0.25762660931959D+03
 Optimization completed.
    -- Stationary point found.
 Normal termination of Gaussian 09 at Wed Dec 11 17:39:38 2013.

 ----------------------------------------------------------------------
 #N Geom=AllCheck Guess=TCheck SCRF=Check GenChk RCCD(FC)/6-311G(d) Fre
 q
 ----------------------------------------------------------------------

 Structure from the checkpoint file:  "/tmp/rdj3/g09-31683/Gau-16256.chk"
 -----------------------------------------------------------------
 1H-tetrazole CH2N4 casno=288948 state=1 config=1 method=6 basis=7
 -----------------------------------------------------------------
 Charge =  0 Multiplicity = 1

                         Standard orientation:
 ---------------------------------------------------------------------
 Center     Atomic      Atomic             Coordinates (Angstroms)
 Number     Number       Type             X           Y           Z
 ---------------------------------------------------------------------
      1          6           0        1.066015    0.230422    0.000000
      2          7           0        0.000000    1.051833    0.000000
      3          7           0       -1.113230    0.305670    0.000000
      4          7           0       -0.724681   -0.920836    0.000000
      5          7           0        0.633445   -1.006936    0.000000
      6          1           0        2.096461    0.553699    0.000000
      7          1           0       -0.061290    2.055655    0.000000
 ---------------------------------------------------------------------

 E2 =    -0.8198841614D+00 EUMP2 =    -0.25762661597050D+03
 E2 =    -0.8199016645D+00 EUMP2 =    -0.25762660106226D+03
 E2 =    -0.8197659234D+00 EUMP2 =    -0.25762656857178D+03
 E2 =    -0.8200199689D+00 EUMP2 =    -0.25762664788023D+03
 E2 =    -0.8198929398D+00 EUMP2 =    -0.25762660910672D+03
 E2 =    -0.8199191333D+00 EUMP2 =    -0.25762660838817D+03
 E2 =    -0.8198666709D+00 EUMP2 =    -0.25762660877400D+03
 E2 =    -0.8198106880D+00 EUMP2 =    -0.25762658566029D+03
 E2 =    -0.8199751439D+00 EUMP2 =    -0.25762663068103D+03
 E2 =    -0.8198929197D+00 EUMP2 =    -0.25762660912829D+03
 SCF Done:  E(RHF) =  -256.806698740     A.U. after    7 cycles
 E2 =    -0.8199082549D+00 EUMP2 =    -0.25762660699519D+03
 SCF Done:  E(RHF) =  -256.806732888     A.U. after    8 cycles
 E2 =    -0.8198774833D+00 EUMP2 =    -0.25762661037092D+03
 SCF Done:  E(RHF) =  -256.806710997     A.U. after    8 cycles
 E2 =    -0.8198980232D+00 EUMP2 =    -0.25762660901996D+03
 SCF Done:  E(RHF) =  -256.806721601     A.U. after    8 cycles
 E2 =    -0.8198877237D+00 EUMP2 =    -0.25762660932438D+03
 SCF Done:  E(RHF) =  -256.806716405     A.U. after    7 cycles
 E2 =    -0.8198928691D+00 EUMP2 =    -0.25762660927392D+03
 SCF Done:  E(RHF) =  -256.806719150     A.U. after    7 cycles
 E2 =    -0.8198891665D+00 EUMP2 =    -0.25762660831674D+03
 SCF Done:  E(RHF) =  -256.806713491     A.U. after    8 cycles
 E2 =    -0.8198965988D+00 EUMP2 =    -0.25762661009000D+03
 SCF Done:  E(RHF) =  -256.806687177     A.U. after    7 cycles
 E2 =    -0.8199260057D+00 EUMP2 =    -0.25762661318301D+03
 SCF Done:  E(RHF) =  -256.806743964     A.U. after    8 cycles
 E2 =    -0.8198597324D+00 EUMP2 =    -0.25762660369680D+03
 SCF Done:  E(RHF) =  -256.806716424     A.U. after    6 cycles
 E2 =    -0.8198928648D+00 EUMP2 =    -0.25762660928873D+03

 Alpha  occ. eigenvalues --  -15.68200 -15.66033 -15.64210 -15.60076 -11.33939
 Alpha  occ. eigenvalues --   -1.49968  -1.25910  -1.19742  -0.90964  -0.89117
 Alpha  occ. eigenvalues --   -0.80192  -0.67845  -0.67774  -0.56905  -0.47883
 Alpha  occ. eigenvalues --   -0.47129  -0.45548  -0.41896
 Alpha virt. eigenvalues --    0.12704   0.13665   0.16662   0.18450   0.33151
 Alpha virt. eigenvalues --    0.36408   0.37474   0.46201   0.52206   0.56484
 Alpha virt. eigenvalues --    0.61429   0.62973   0.69094   0.75003   0.77769

 Mulliken charges:
               1
     1  C    0.117589
     2  N   -0.432007
     3  N   -0.010208
     4  N   -0.086450
     5  N   -0.239837
     6  H    0.265012
     7  H    0.385900
 Sum of Mulliken charges =   0.00000

 Dipole moment (field-independent basis, Debye):
    X=              2.5249    Y=              4.9014    Z=              0.0018  Tot=              5.5135
 Quadrupole moment (field-independent basis, Debye-Ang):
   XX=            -29.1125   YY=            -26.6191   ZZ=            -28.5805
   XY=              1.8529   XZ=             -0.0001   YZ=              0.0040

                      1                      2                      3
                     A"                     A"                     A"
 Frequencies --    587.6085               703.5490               746.7240
 Red. masses --      1.9308                 1.9148                 6.8142
 Frc consts  --      0.3928                 0.5584                 2.2387
 IR Inten    --     93.4731                12.2892                11.4375

                      4                      5                      6
                     A"                     A'                     A'
 Frequencies --    869.6386              1001.1175              1035.8946
 Red. masses --      1.3489                 4.7151                 6.9987
 Frc consts  --      0.6010                 2.7843                 4.4248
 IR Inten    --     23.1967                 2.2583                 1.6157

                      7                      8                      9
                     A'                     A'                     A'
 Frequencies --   1102.8282              1134.1282              1179.7107
 Red. masses --      4.7158                 2.6665                 1.9268
 Frc consts  --      3.3793                 2.0208                 1.5799
 IR Inten    --     23.3290                28.6804                 9.2287

                     10                     11                     12
                     A'                     A'                     A'
 Frequencies --   1314.6168              1354.2776              1527.6171
 Red. masses --      3.2587                 7.6658                 3.3642
 Frc consts  --      3.3181                 8.2836                 4.6255
 IR Inten    --      0.2614                17.7763                15.7036

                     13                     14                     15
                     A'                     A'                     A'
 Frequencies --   1566.4645              3308.8807              3734.5454
 Red. masses --      3.1277                 1.1027                 1.0841
 Frc consts  --      4.5219                 7.1133                 8.9086
 IR Inten    --     20.7305                 0.7348                99.9842

 - Thermochemistry -
 -------------------
 Temperature   298.150 Kelvin.  Pressure   1.00000 Atm.
 Atom     1 has atomic number  6 and mass  12.00000

 Molecular mass:    70.02795 amu.
 Principal axes and moments of inertia in atomic units:
                           1         2         3
     Eigenvalues --   170.29751 173.66548 343.96299
           X            0.83005   0.55769   0.00000
           Y           -0.55769   0.83005   0.00000
           Z            0.00000   0.00000   1.00000
 This molecule is an asymmetric top.
 Rotational symmetry number  1.
 Rotational temperatures (Kelvin)      0.50860     0.49874     0.25181
 Rotational constants (GHZ):          10.59758    10.39205     5.24691
 Zero-point vibrational energy     126610.4 (Joules/Mol)
                                   30.26061 (Kcal/Mol)
 Warning -- explicit consideration of   1 degrees of freedom as
           vibrations may cause significant error
 Vibrational temperatures:    845.44  1012.25  1074.37  1251.21  1440.38
          (Kelvin)           1490.42  1586.72  1631.76  1697.34  1891.44
                             1948.50  2197.90  2253.79  4760.74  5373.17

 Zero-point correction=                           0.048223 (Hartree/Particle)
 Thermal correction to Energy=                    0.051651
 Thermal correction to Enthalpy=                  0.052595
 Thermal correction to Gibbs Free Energy=         0.022149
 Sum of electronic and zero-point Energies=           -257.572948
 Sum of electronic and thermal Energies=              -257.569521
 Sum of electronic and thermal Enthalpies=            -257.568577
 Sum of electronic and thermal Free Energies=         -257.599023

                     E (Thermal)             CV                S
                      KCal/Mol        Cal/Mol-Kelvin    Cal/Mol-Kelvin
 Total                   32.411             10.983             64.079
 Electronic               0.000              0.000              0.000
 Translational            0.889              2.981             38.656
 Rotational               0.889              2.981             23.835
 Vibrational             30.634              5.021              1.588
 Vibration     1          0.945              1.058              0.471

 Optimization completed.
    -- Stationary point found.
 Normal termination of Gaussian 09 at Wed Dec 11 19:02:11 2013.
