 Gaussian 09, Revision D.01,
 Gaussian 09:  EM64L-G09RevD.01 24-Apr-2013

 -------------------------------------
 #CCD/3-21G* opt=z-matrix freq density
 -------------------------------------

 -----------------------------------------------------------------
 1H-tetrazole CH2N4 casno=288948 state=1 config=1 method=6 basis=8
 -----------------------------------------------------------------
 Symbolic Z-matrix:
 Charge =  0 Multiplicity = 1

 SCF Done:  E(RHF) =  -255.261114440     A.U. after   14 cycles
 E2 =    -0.5240768282D+00 EUMP2 =    -0.25578519126841D+03
 SCF Done:  E(RHF) =  -255.265401734     A.U. after   15 cycles
 E2 =    -0.5487407197D+00 EUMP2 =    -0.25581414245414D+03
 SCF Done:  E(RHF) =  -255.261121981     A.U. after   14 cycles
 E2 =    -0.5567236266D+00 EUMP2 =    -0.25581784560735D+03
 SCF Done:  E(RHF) =  -255.258437117     A.U. after   14 cycles
 E2 =    -0.5560985050D+00 EUMP2 =    -0.25581453562217D+03
 SCF Done:  E(RHF) =  -255.260265430     A.U. after   14 cycles
 E2 =    -0.5567680814D+00 EUMP2 =    -0.25581703351155D+03
 SCF Done:  E(RHF) =  -255.261384137     A.U. after   12 cycles
 E2 =    -0.5571788167D+00 EUMP2 =    -0.25581856295342D+03
 SCF Done:  E(RHF) =  -255.261461682     A.U. after   13 cycles
 E2 =    -0.5564648057D+00 EUMP2 =    -0.25581792648730D+03
 SCF Done:  E(RHF) =  -255.261002561     A.U. after   13 cycles
 E2 =    -0.5578204834D+00 EUMP2 =    -0.25581882304431D+03
 SCF Done:  E(RHF) =  -255.260608777     A.U. after   12 cycles
 E2 =    -0.5583957499D+00 EUMP2 =    -0.25581900452710D+03
 SCF Done:  E(RHF) =  -255.261336984     A.U. after   13 cycles
 E2 =    -0.5572458448D+00 EUMP2 =    -0.25581858282855D+03
 E2 =    -0.5582342466D+00 EUMP2 =    -0.25581895373424D+03
 E2 =    -0.5581546915D+00 EUMP2 =    -0.25581893856148D+03
 E2 =    -0.5574134571D+00 EUMP2 =    -0.25581874671249D+03
 E2 =    -0.5581030909D+00 EUMP2 =    -0.25581892458324D+03
 E2 =    -0.5577314609D+00 EUMP2 =    -0.25581883097830D+03
 E2 =    -0.5580746948D+00 EUMP2 =    -0.25581891727892D+03
 E2 =    -0.5580763815D+00 EUMP2 =    -0.25581891438154D+03
 E2 =    -0.5580628026D+00 EUMP2 =    -0.25581891196929D+03
 E2 =    -0.5580496491D+00 EUMP2 =    -0.25581890797069D+03
 E2 =    -0.5580553221D+00 EUMP2 =    -0.25581891030406D+03
 Optimization completed.
    -- Stationary point found.
 Normal termination of Gaussian 09 at Wed Dec 11 19:06:20 2013.

 --------------------------------------------------------------------
 #N Geom=AllCheck Guess=TCheck SCRF=Check GenChk RCCD(FC)/3-21G* Freq
 --------------------------------------------------------------------

 Structure from the checkpoint file:  "/tmp/rdj3/g09-31683/Gau-22812.chk"
 -----------------------------------------------------------------
 1H-tetrazole CH2N4 casno=288948 state=1 config=1 method=6 basis=8
 -----------------------------------------------------------------
 Charge =  0 Multiplicity = 1

                         Standard orientation:
 ---------------------------------------------------------------------
 Center     Atomic      Atomic             Coordinates (Angstroms)
 Number     Number       Type             X           Y           Z
 ---------------------------------------------------------------------
      1          6           0        1.085712    0.254827    0.000000
      2          7           0        0.000000    1.089858    0.000000
      3          7           0       -1.172026    0.297664    0.000000
      4          7           0       -0.756225   -0.972659    0.000000
      5          7           0        0.705716   -1.018566    0.000000
      6          1           0        2.107314    0.597932    0.000000
      7          1           0       -0.063835    2.099032    0.000000
 ---------------------------------------------------------------------

 E2 =    -0.5580218462D+00 EUMP2 =    -0.25581890686348D+03
 E2 =    -0.5580699077D+00 EUMP2 =    -0.25581890616044D+03
 E2 =    -0.5578996367D+00 EUMP2 =    -0.25581886069061D+03
 E2 =    -0.5581921860D+00 EUMP2 =    -0.25581895188702D+03
 E2 =    -0.5580459029D+00 EUMP2 =    -0.25581890683607D+03
 E2 =    -0.5580977471D+00 EUMP2 =    -0.25581891742483D+03
 E2 =    -0.5579939818D+00 EUMP2 =    -0.25581889566803D+03
 E2 =    -0.5579431021D+00 EUMP2 =    -0.25581887842226D+03
 E2 =    -0.5581486484D+00 EUMP2 =    -0.25581893367861D+03
 E2 =    -0.5580458915D+00 EUMP2 =    -0.25581890684238D+03
 SCF Done:  E(RHF) =  -255.260838404     A.U. after    8 cycles
 E2 =    -0.5580644225D+00 EUMP2 =    -0.25581890282617D+03
 SCF Done:  E(RHF) =  -255.260882690     A.U. after    9 cycles
 E2 =    -0.5580272342D+00 EUMP2 =    -0.25581890992440D+03
 SCF Done:  E(RHF) =  -255.260853305     A.U. after    9 cycles
 E2 =    -0.5580528000D+00 EUMP2 =    -0.25581890610461D+03
 SCF Done:  E(RHF) =  -255.260868718     A.U. after   10 cycles
 E2 =    -0.5580388757D+00 EUMP2 =    -0.25581890759387D+03
 SCF Done:  E(RHF) =  -255.260861118     A.U. after    7 cycles
 E2 =    -0.5580458438D+00 EUMP2 =    -0.25581890696173D+03
 SCF Done:  E(RHF) =  -255.260862672     A.U. after    9 cycles
 E2 =    -0.5580437611D+00 EUMP2 =    -0.25581890643304D+03
 SCF Done:  E(RHF) =  -255.260859430     A.U. after    9 cycles
 E2 =    -0.5580479370D+00 EUMP2 =    -0.25581890736741D+03
 SCF Done:  E(RHF) =  -255.260831713     A.U. after    8 cycles
 E2 =    -0.5580783405D+00 EUMP2 =    -0.25581891005367D+03
 SCF Done:  E(RHF) =  -255.260888969     A.U. after    9 cycles
 E2 =    -0.5580133320D+00 EUMP2 =    -0.25581890230063D+03
 SCF Done:  E(RHF) =  -255.260861141     A.U. after    8 cycles
 E2 =    -0.5580458406D+00 EUMP2 =    -0.25581890698206D+03

 Alpha  occ. eigenvalues --  -15.62100 -15.61784 -15.60135 -15.55376 -11.30734
 Alpha  occ. eigenvalues --   -1.47439  -1.23949  -1.20700  -0.89687  -0.87843
 Alpha  occ. eigenvalues --   -0.79729  -0.66007  -0.65777  -0.55613  -0.48275
 Alpha  occ. eigenvalues --   -0.46407  -0.44880  -0.42760
 Alpha virt. eigenvalues --    0.11832   0.16984   0.23073   0.25812   0.34083
 Alpha virt. eigenvalues --    0.37743   0.45745   0.54637   0.61656   0.92554
 Alpha virt. eigenvalues --    0.93797   1.04654   1.09082   1.20663   1.31767

 Mulliken charges:
               1
     1  C    0.325082
     2  N   -0.550120
     3  N   -0.017521
     4  N   -0.072030
     5  N   -0.332363
     6  H    0.269985
     7  H    0.376966
 Sum of Mulliken charges =   0.00000

 Dipole moment (field-independent basis, Debye):
    X=              2.4272    Y=              4.9251    Z=              0.0020  Tot=              5.4907
 Quadrupole moment (field-independent basis, Debye-Ang):
   XX=            -29.7426   YY=            -27.1973   ZZ=            -28.8998
   XY=              2.0372   XZ=             -0.0001   YZ=              0.0044

                      1                      2                      3
                     A"                     A"                     A"
 Frequencies --    615.7017               675.1991               689.7705
 Red. masses --      2.3219                 1.7078                 5.2648
 Frc consts  --      0.5186                 0.4587                 1.4759
 IR Inten    --    116.0203                28.8381                24.8921

                      4                      5                      6
                     A'                     A"                     A'
 Frequencies --    764.9690               909.2776               925.1193
 Red. masses --     11.3930                 1.3696                 5.7992
 Frc consts  --      3.9280                 0.6672                 2.9243
 IR Inten    --     15.5420                17.8913                16.8438

                      7                      8                      9
                     A'                     A'                     A'
 Frequencies --    984.6354              1017.0135              1065.7940
 Red. masses --      4.9601                 6.5490                 9.9024
 Frc consts  --      2.8333                 3.9910                 6.6273
 IR Inten    --      5.0604                 7.5714                 1.7712

                     10                     11                     12
                     A'                     A'                     A'
 Frequencies --   1145.3816              1238.2794              1402.6327
 Red. masses --      2.3800                 2.0369                 2.5127
 Frc consts  --      1.8396                 1.8402                 2.9126
 IR Inten    --     12.9987                 9.6869                14.0508

                     13                     14                     15
                     A'                     A'                     A'
 Frequencies --   1463.4103              3307.8312              3630.2718
 Red. masses --      2.0299                 1.1001                 1.0842
 Frc consts  --      2.5613                 7.0918                 8.4187
 IR Inten    --     43.6208                 1.1148               118.5435

 - Thermochemistry -
 -------------------
 Temperature   298.150 Kelvin.  Pressure   1.00000 Atm.
 Atom     1 has atomic number  6 and mass  12.00000

 Molecular mass:    70.02795 amu.
 Principal axes and moments of inertia in atomic units:
                           1         2         3
     Eigenvalues --   182.41953 188.64983 371.06937
           X            0.98729   0.15893   0.00000
           Y           -0.15893   0.98729   0.00000
           Z            0.00000   0.00000   1.00000
 This molecule is an asymmetric top.
 Rotational symmetry number  1.
 Rotational temperatures (Kelvin)      0.47481     0.45912     0.23342
 Rotational constants (GHZ):           9.89335     9.56662     4.86362
 Zero-point vibrational energy     118641.4 (Joules/Mol)
                                   28.35597 (Kcal/Mol)
 Warning -- explicit consideration of   1 degrees of freedom as
           vibrations may cause significant error
 Vibrational temperatures:    885.86   971.46   992.42  1100.62  1308.25
          (Kelvin)           1331.04  1416.67  1463.25  1533.44  1647.95
                             1781.61  2018.07  2105.52  4759.23  5223.14

 Zero-point correction=                           0.045188 (Hartree/Particle)
 Thermal correction to Energy=                    0.048753
 Thermal correction to Enthalpy=                  0.049697
 Thermal correction to Gibbs Free Energy=         0.018970
 Sum of electronic and zero-point Energies=           -255.766838
 Sum of electronic and thermal Energies=              -255.763274
 Sum of electronic and thermal Enthalpies=            -255.762330
 Sum of electronic and thermal Free Energies=         -255.793057

                     E (Thermal)             CV                S
                      KCal/Mol        Cal/Mol-Kelvin    Cal/Mol-Kelvin
 Total                   30.593             12.029             64.671
 Electronic               0.000              0.000              0.000
 Translational            0.889              2.981             38.656
 Rotational               0.889              2.981             24.061
 Vibrational             28.815              6.068              1.955
 Vibration     1          0.975              0.999              0.423

 Optimization completed.
    -- Stationary point found.
 Normal termination of Gaussian 09 at Wed Dec 11 19:15:04 2013.
