 Gaussian 09, Revision D.01,
 Gaussian 09:  EM64L-G09RevD.01 24-Apr-2013

 ---------------------------
 #CCD/6-31G opt freq density
 ---------------------------

 -----------------------------------------------------------------
 1H-tetrazole CH2N4 casno=288948 state=1 config=1 method=6 basis=9
 -----------------------------------------------------------------
 Symbolic Z-matrix:
 Charge =  0 Multiplicity = 1

 SCF Done:  E(RHF) =  -256.588556245     A.U. after   15 cycles
 E2 =    -0.5280571919D+00 EUMP2 =    -0.25711661343668D+03
 SCF Done:  E(RHF) =  -256.585319076     A.U. after   15 cycles
 E2 =    -0.5548456751D+00 EUMP2 =    -0.25714016475147D+03
 SCF Done:  E(RHF) =  -256.581088438     A.U. after   14 cycles
 E2 =    -0.5612196882D+00 EUMP2 =    -0.25714230812660D+03
 SCF Done:  E(RHF) =  -256.581331190     A.U. after   13 cycles
 E2 =    -0.5614755209D+00 EUMP2 =    -0.25714280671058D+03
 SCF Done:  E(RHF) =  -256.581804219     A.U. after   12 cycles
 E2 =    -0.5608831579D+00 EUMP2 =    -0.25714268737714D+03
 SCF Done:  E(RHF) =  -256.581996730     A.U. after   11 cycles
 E2 =    -0.5606345269D+00 EUMP2 =    -0.25714263125648D+03
 SCF Done:  E(RHF) =  -256.581999466     A.U. after   10 cycles
 E2 =    -0.5606202551D+00 EUMP2 =    -0.25714261972151D+03
 Optimization completed.
    -- Stationary point found.
 Normal termination of Gaussian 09 at Thu Dec 19 00:18:51 2013.

 -------------------------------------------------------------------
 #N Geom=AllCheck Guess=TCheck SCRF=Check GenChk RCCD(FC)/6-31G Freq
 -------------------------------------------------------------------

 Structure from the checkpoint file:  "/tmp/rdj3/g09-13683/Gau-29302.chk"
 -----------------------------------------------------------------
 1H-tetrazole CH2N4 casno=288948 state=1 config=1 method=6 basis=9
 -----------------------------------------------------------------
 Charge =  0 Multiplicity = 1

                         Standard orientation:
 ---------------------------------------------------------------------
 Center     Atomic      Atomic             Coordinates (Angstroms)
 Number     Number       Type             X           Y           Z
 ---------------------------------------------------------------------
      1          6           0        1.091127    0.250641    0.000000
      2          7           0        0.000000    1.077054    0.000000
      3          7           0       -1.152953    0.303747    0.000000
      4          7           0       -0.748380   -0.956561    0.000000
      5          7           0        0.671985   -1.019279    0.000000
      6          1           0        2.121399    0.577774    0.000000
      7          1           0       -0.062719    2.083647    0.000000
 ---------------------------------------------------------------------

 SCF Done:  E(RHF) =  -256.581999466     A.U. after    1 cycles
 E2 =    -0.5606202569D+00 EUMP2 =    -0.25714261972325D+03
 SCF Done:  E(RHF) =  -256.581953098     A.U. after   10 cycles
 E2 =    -0.5606835418D+00 EUMP2 =    -0.25714263663927D+03
 SCF Done:  E(RHF) =  -256.582042443     A.U. after   11 cycles
 E2 =    -0.5605571825D+00 EUMP2 =    -0.25714259962544D+03
 E2 =    -0.5606693996D+00 EUMP2 =    -0.25714263741550D+03
 E2 =    -0.5605711599D+00 EUMP2 =    -0.25714259979417D+03
 E2 =    -0.5606204204D+00 EUMP2 =    -0.25714261950879D+03
 E2 =    -0.5606357999D+00 EUMP2 =    -0.25714262914968D+03
 E2 =    -0.5606047823D+00 EUMP2 =    -0.25714260846309D+03
 E2 =    -0.5606713650D+00 EUMP2 =    -0.25714263289123D+03
 E2 =    -0.5605693643D+00 EUMP2 =    -0.25714260301637D+03
 E2 =    -0.5606203758D+00 EUMP2 =    -0.25714261955727D+03
 E2 =    -0.5604969858D+00 EUMP2 =    -0.25714258411446D+03
 E2 =    -0.5607436806D+00 EUMP2 =    -0.25714265372349D+03
 E2 =    -0.5605854114D+00 EUMP2 =    -0.25714261541218D+03
 E2 =    -0.5606552017D+00 EUMP2 =    -0.25714262293895D+03
 E2 =    -0.5604613272D+00 EUMP2 =    -0.25714257107518D+03
 E2 =    -0.5607793644D+00 EUMP2 =    -0.25714266668189D+03
 E2 =    -0.5606203644D+00 EUMP2 =    -0.25714261954845D+03
 E2 =    -0.5606797626D+00 EUMP2 =    -0.25714263303638D+03
 E2 =    -0.5605608228D+00 EUMP2 =    -0.25714260538426D+03
 E2 =    -0.5605114485D+00 EUMP2 =    -0.25714259085086D+03
 E2 =    -0.5607291963D+00 EUMP2 =    -0.25714264660698D+03
 E2 =    -0.5606203485D+00 EUMP2 =    -0.25714261956104D+03
 SCF Done:  E(RHF) =  -256.581971948     A.U. after    8 cycles
 E2 =    -0.5606437515D+00 EUMP2 =    -0.25714261569922D+03
 SCF Done:  E(RHF) =  -256.582025694     A.U. after    9 cycles
 E2 =    -0.5605967849D+00 EUMP2 =    -0.25714262247934D+03
 SCF Done:  E(RHF) =  -256.581990692     A.U. after    9 cycles
 E2 =    -0.5606281618D+00 EUMP2 =    -0.25714261885395D+03
 SCF Done:  E(RHF) =  -256.582007901     A.U. after   10 cycles
 E2 =    -0.5606124014D+00 EUMP2 =    -0.25714262030216D+03
 SCF Done:  E(RHF) =  -256.581999400     A.U. after    6 cycles
 E2 =    -0.5606202892D+00 EUMP2 =    -0.25714261968899D+03
 SCF Done:  E(RHF) =  -256.582002002     A.U. after    9 cycles
 E2 =    -0.5606168836D+00 EUMP2 =    -0.25714261888528D+03
 SCF Done:  E(RHF) =  -256.581996641     A.U. after    9 cycles
 E2 =    -0.5606237020D+00 EUMP2 =    -0.25714262034250D+03
 SCF Done:  E(RHF) =  -256.581963642     A.U. after    8 cycles
 E2 =    -0.5606592419D+00 EUMP2 =    -0.25714262288396D+03
 SCF Done:  E(RHF) =  -256.582033538     A.U. after    9 cycles
 E2 =    -0.5605812928D+00 EUMP2 =    -0.25714261483098D+03
 SCF Done:  E(RHF) =  -256.581999414     A.U. after    7 cycles
 E2 =    -0.5606202851D+00 EUMP2 =    -0.25714261969943D+03

 Alpha  occ. eigenvalues --  -15.70349 -15.70178 -15.68363 -15.64187 -11.37263
 Alpha  occ. eigenvalues --   -1.50619  -1.26367  -1.22054  -0.91437  -0.89461
 Alpha  occ. eigenvalues --   -0.80723  -0.67748  -0.67455  -0.56776  -0.48730
 Alpha  occ. eigenvalues --   -0.47899  -0.46204  -0.43233
 Alpha virt. eigenvalues --    0.10521   0.15496   0.18981   0.23392   0.32966
 Alpha virt. eigenvalues --    0.34282   0.42516   0.47284   0.59518   0.73518
 Alpha virt. eigenvalues --    0.76218   0.83846   0.88261   0.90253   0.91578

 Mulliken charges:
               1
     1  C    0.304220
     2  N   -0.590101
     3  N    0.030250
     4  N   -0.087258
     5  N   -0.293969
     6  H    0.239493
     7  H    0.397364
 Sum of Mulliken charges =   0.00000

 Dipole moment (field-independent basis, Debye):
    X=              2.7480    Y=              5.2267    Z=              0.0021  Tot=              5.9051
 Quadrupole moment (field-independent basis, Debye-Ang):
   XX=            -30.6265   YY=            -28.2717   ZZ=            -29.2666
   XY=              2.1402   XZ=             -0.0001   YZ=              0.0046

                      1                      2                      3
                     A"                     A"                     A"
 Frequencies --    651.1896               701.8836               713.9875
 Red. masses --      4.3804                 1.6206                 2.8448
 Frc consts  --      1.0944                 0.4704                 0.8545
 IR Inten    --     52.4513                70.0727                51.0661

                      4                      5                      6
                     A'                     A"                     A'
 Frequencies --    826.0891               842.1863               983.3752
 Red. masses --     10.4959                 1.3577                 4.9679
 Frc consts  --      4.2201                 0.5674                 2.8305
 IR Inten    --     11.0474                27.9014                22.3328

                      7                      8                      9
                     A'                     A'                     A'
 Frequencies --   1009.4298              1040.7453              1143.4334
 Red. masses --      6.8227                 5.1700                 2.4849
 Frc consts  --      4.0960                 3.2993                 1.9142
 IR Inten    --      1.1483                 9.8570                14.2420

                     10                     11                     12
                     A'                     A'                     A'
 Frequencies --   1199.0790              1253.1058              1446.7473
 Red. masses --      4.3267                 2.4163                 3.1091
 Frc consts  --      3.6653                 2.2355                 3.8342
 IR Inten    --     11.6192                 3.3071                10.0634

                     13                     14                     15
                     A'                     A'                     A'
 Frequencies --   1510.3569              3321.7304              3719.1944
 Red. masses --      1.9494                 1.1033                 1.0845
 Frc consts  --      2.6200                 7.1724                 8.8386
 IR Inten    --     45.0944                 2.4429               121.2254

 - Thermochemistry -
 -------------------
 Temperature   298.150 Kelvin.  Pressure   1.00000 Atm.
 Atom     1 has atomic number  6 and mass  12.00000

 Molecular mass:    70.02795 amu.
 Principal axes and moments of inertia in atomic units:
                           1         2         3
     Eigenvalues --   179.42153 184.14923 363.57076
           X            0.99230   0.12384   0.00000
           Y           -0.12384   0.99230   0.00000
           Z            0.00000   0.00000   1.00000
 This molecule is an asymmetric top.
 Rotational symmetry number  1.
 Rotational temperatures (Kelvin)      0.48274     0.47035     0.23823
 Rotational constants (GHZ):          10.05867     9.80043     4.96393
 Zero-point vibrational energy     121795.0 (Joules/Mol)
                                   29.10970 (Kcal/Mol)
 Vibrational temperatures:    936.92  1009.85  1027.27  1188.56  1211.72
          (Kelvin)           1414.86  1452.34  1497.40  1645.14  1725.21
                             1802.94  2081.54  2173.06  4779.22  5351.08

 Zero-point correction=                           0.046389 (Hartree/Particle)
 Thermal correction to Energy=                    0.049881
 Thermal correction to Enthalpy=                  0.050826
 Thermal correction to Gibbs Free Energy=         0.020225
 Sum of electronic and zero-point Energies=           -257.091542
 Sum of electronic and thermal Energies=              -257.088050
 Sum of electronic and thermal Enthalpies=            -257.087106
 Sum of electronic and thermal Free Energies=         -257.117706

                     E (Thermal)             CV                S
                      KCal/Mol        Cal/Mol-Kelvin    Cal/Mol-Kelvin
 Total                   31.301             11.591             64.404
 Electronic               0.000              0.000              0.000
 Translational            0.889              2.981             38.656
 Rotational               0.889              2.981             24.000
 Vibrational             29.524              5.629              1.748

 Optimization completed.
    -- Stationary point found.
 Normal termination of Gaussian 09 at Thu Dec 19 00:29:13 2013.
