 Gaussian 09, Revision D.01,
 Gaussian 09:  EM64L-G09RevD.01 24-Apr-2013

 --------------------------------------------
 #QCISD(T)=FULL/aug-cc-pVDZ opt=z-matrix freq
 --------------------------------------------

 -------------------------------------------------------------------
 1H-tetrazole CH2N4 casno=288948 state=1 config=1 method=70 basis=17
 -------------------------------------------------------------------
 Symbolic Z-matrix:
 Charge =  0 Multiplicity = 1

 SCF Done:  E(RHF) =  -256.797933873     A.U. after   15 cycles
 E2 =    -0.8215273517D+00 EUMP2 =    -0.25761946122425D+03
 SCF Done:  E(RHF) =  -256.797934875     A.U. after    8 cycles
 E2 =    -0.8215393779D+00 EUMP2 =    -0.25761947425337D+03
 SCF Done:  E(RHF) =  -256.797932761     A.U. after    8 cycles
 E2 =    -0.8215153347D+00 EUMP2 =    -0.25761944809532D+03
 SCF Done:  E(RHF) =  -256.797934335     A.U. after    8 cycles
 E2 =    -0.8215528060D+00 EUMP2 =    -0.25761948714133D+03
 SCF Done:  E(RHF) =  -256.797933293     A.U. after    9 cycles
 E2 =    -0.8215019044D+00 EUMP2 =    -0.25761943519736D+03
 SCF Done:  E(RHF) =  -256.797934844     A.U. after    7 cycles
 E2 =    -0.8215463315D+00 EUMP2 =    -0.25761948117561D+03
 SCF Done:  E(RHF) =  -256.797932793     A.U. after    9 cycles
 E2 =    -0.8215083952D+00 EUMP2 =    -0.25761944118833D+03
 SCF Done:  E(RHF) =  -256.797935688     A.U. after    8 cycles
 E2 =    -0.8215454939D+00 EUMP2 =    -0.25761948118179D+03
 SCF Done:  E(RHF) =  -256.797931949     A.U. after    9 cycles
 E2 =    -0.8215092262D+00 EUMP2 =    -0.25761944117551D+03
 SCF Done:  E(RHF) =  -256.797935594     A.U. after    8 cycles
 E2 =    -0.8215306416D+00 EUMP2 =    -0.25761946623567D+03
 E2 =    -0.8215240723D+00 EUMP2 =    -0.25761945615689D+03
 E2 =    -0.8215341397D+00 EUMP2 =    -0.25761946831429D+03
 E2 =    -0.8215205553D+00 EUMP2 =    -0.25761945404163D+03
 E2 =    -0.8215218023D+00 EUMP2 =    -0.25761945688431D+03
 E2 =    -0.8215328907D+00 EUMP2 =    -0.25761946507156D+03
 E2 =    -0.8214932243D+00 EUMP2 =    -0.25761942490896D+03
 E2 =    -0.8215614647D+00 EUMP2 =    -0.25761949692036D+03
 E2 =    -0.8215684812D+00 EUMP2 =    -0.25761950305013D+03
 E2 =    -0.8214862176D+00 EUMP2 =    -0.25761941892689D+03
 E2 =    -0.8215187886D+00 EUMP2 =    -0.25761945100068D+03
 Normal termination of Gaussian 09 at Tue Nov 26 04:53:23 2013.

 ----------------------------------------------------------------------
 #N Geom=AllCheck Guess=TCheck SCRF=Check GenChk RQCISD(T)-Full/Aug-CC-
 pVDZ Freq
 ----------------------------------------------------------------------

 Structure from the checkpoint file:  "/tmp/rdj3/g09-31766/Gau-31822.chk"
 -------------------------------------------------------------------
 1H-tetrazole CH2N4 casno=288948 state=1 config=1 method=70 basis=17
 -------------------------------------------------------------------
 Charge =  0 Multiplicity = 1

                         Standard orientation:
 ---------------------------------------------------------------------
 Center     Atomic      Atomic             Coordinates (Angstroms)
 Number     Number       Type             X           Y           Z
 ---------------------------------------------------------------------
      1          6           0        1.076774    0.239083    0.000000
      2          7           0        0.000000    1.065085    0.000000
      3          7           0       -1.133013    0.307125    0.000000
      4          7           0       -0.731646   -0.936064    0.000000
      5          7           0        0.648535   -1.019371    0.000000
      6          1           0        2.112246    0.571271    0.000000
      7          1           0       -0.060021    2.076806    0.000000
 ---------------------------------------------------------------------

 E2 =    -0.8416220674D+00 EUMP2 =    -0.25762850117885D+03
 E2 =    -0.8386124082D+00 EUMP2 =    -0.25762817305653D+03
 E2 =    -0.8402906252D+00 EUMP2 =    -0.25762848293397D+03
 E2 =    -0.8399228979D+00 EUMP2 =    -0.25762840363083D+03
 E2 =    -0.8389919054D+00 EUMP2 =    -0.25762795940415D+03
 E2 =    -0.8411997387D+00 EUMP2 =    -0.25762873557637D+03
 E2 =    -0.8398058575D+00 EUMP2 =    -0.25762827823293D+03
 E2 =    -0.8404028860D+00 EUMP2 =    -0.25762826969544D+03
 E2 =    -0.8396739003D+00 EUMP2 =    -0.25762850310147D+03
 E2 =    -0.8405319366D+00 EUMP2 =    -0.25762834536160D+03
 SCF Done:  E(RHF) =  -256.788925289     A.U. after   12 cycles
 E2 =    -0.8392866557D+00 EUMP2 =    -0.25762821194422D+03
 SCF Done:  E(RHF) =  -256.787419151     A.U. after   12 cycles
 E2 =    -0.8409466020D+00 EUMP2 =    -0.25762836575311D+03
 SCF Done:  E(RHF) =  -256.788618766     A.U. after   12 cycles
 E2 =    -0.8394768022D+00 EUMP2 =    -0.25762809556867D+03
 SCF Done:  E(RHF) =  -256.787715420     A.U. after   12 cycles
 E2 =    -0.8407219672D+00 EUMP2 =    -0.25762843738678D+03
 SCF Done:  E(RHF) =  -256.790131378     A.U. after   12 cycles
 E2 =    -0.8382248128D+00 EUMP2 =    -0.25762835619084D+03
 SCF Done:  E(RHF) =  -256.786289736     A.U. after   12 cycles
 E2 =    -0.8419775735D+00 EUMP2 =    -0.25762826730968D+03
 SCF Done:  E(RHF) =  -256.788261036     A.U. after   12 cycles
 E2 =    -0.8403834533D+00 EUMP2 =    -0.25762864448938D+03
 SCF Done:  E(RHF) =  -256.788214663     A.U. after   12 cycles
 E2 =    -0.8398212478D+00 EUMP2 =    -0.25762803591070D+03
 SCF Done:  E(RHF) =  -256.789465471     A.U. after   13 cycles
 E2 =    -0.8390720299D+00 EUMP2 =    -0.25762853750057D+03

 Alpha  occ. eigenvalues --  -15.69201 -15.67844 -15.66286 -15.61871 -11.35216
 Alpha  occ. eigenvalues --   -1.48527  -1.25449  -1.19391  -0.90940  -0.88628
 Alpha  occ. eigenvalues --   -0.79584  -0.67536  -0.66988  -0.56965  -0.48497
 Alpha  occ. eigenvalues --   -0.47733  -0.45440  -0.41806
 Alpha virt. eigenvalues --    0.01934   0.04140   0.08087   0.08637   0.10914
 Alpha virt. eigenvalues --    0.12049   0.12680   0.14284   0.15595   0.16151
 Alpha virt. eigenvalues --    0.16678   0.17953   0.19785   0.19912   0.21496

 Mulliken charges:
               1
     1  C    1.124053
     2  N   -0.225390
     3  N   -0.165629
     4  N   -0.237293
     5  N   -0.451294
     6  H   -0.065018
     7  H    0.020571
 Sum of Mulliken charges =   0.00000

 Dipole moment (field-independent basis, Debye):
    X=              2.6852    Y=              4.8960    Z=              0.0000  Tot=              5.5840
 Quadrupole moment (field-independent basis, Debye-Ang):
   XX=            -28.8656   YY=            -26.7116   ZZ=            -29.5173
   XY=              2.1451   XZ=              0.0000   YZ=              0.0000

 SCF Done:  E(RHF) =  -256.787025038     A.U. after   13 cycles
 E2 =    -0.8411513961D+00 EUMP2 =    -0.25762817643410D+03
