 Gaussian 09, Revision D.01,
 Gaussian 09:  EM64L-G09RevD.01 24-Apr-2013

 ------------------------------------
 #MP3=FULL/6-31+G** opt=z-matrix freq
 ------------------------------------

 ------------------------------------------------------------------
 1H-tetrazole CH2N4 casno=288948 state=1 config=1 method=71 basis=4
 ------------------------------------------------------------------
 Symbolic Z-matrix:
 Charge =  0 Multiplicity = 1

 SCF Done:  E(RHF) =  -256.767607422     A.U. after   15 cycles
 E2 =    -0.8138812533D+00 EUMP2 =    -0.25758148867493D+03
 SCF Done:  E(RHF) =  -256.764015330     A.U. after   13 cycles
 E2 =    -0.8237744325D+00 EUMP2 =    -0.25758778976285D+03
 SCF Done:  E(RHF) =  -256.763576561     A.U. after   12 cycles
 E2 =    -0.8245051180D+00 EUMP2 =    -0.25758808167929D+03
 SCF Done:  E(RHF) =  -256.763623204     A.U. after   13 cycles
 E2 =    -0.8243113853D+00 EUMP2 =    -0.25758793458959D+03
 SCF Done:  E(RHF) =  -256.763474458     A.U. after   10 cycles
 E2 =    -0.8247098059D+00 EUMP2 =    -0.25758818426419D+03
 SCF Done:  E(RHF) =  -256.763529852     A.U. after   12 cycles
 E2 =    -0.8244914414D+00 EUMP2 =    -0.25758802129366D+03
 SCF Done:  E(RHF) =  -256.763489847     A.U. after    9 cycles
 E2 =    -0.8246959902D+00 EUMP2 =    -0.25758818583723D+03
 SCF Done:  E(RHF) =  -256.763479645     A.U. after   11 cycles
 E2 =    -0.8247127884D+00 EUMP2 =    -0.25758819243313D+03
 SCF Done:  E(RHF) =  -256.763504540     A.U. after    8 cycles
 E2 =    -0.8246776528D+00 EUMP2 =    -0.25758818219318D+03
 SCF Done:  E(RHF) =  -256.763499960     A.U. after   10 cycles
 E2 =    -0.8246943913D+00 EUMP2 =    -0.25758819435111D+03
 E2 =    -0.8246773678D+00 EUMP2 =    -0.25758818341321D+03
 E2 =    -0.8246663455D+00 EUMP2 =    -0.25758818713458D+03
 E2 =    -0.8246767010D+00 EUMP2 =    -0.25758818331189D+03
 E2 =    -0.8246738617D+00 EUMP2 =    -0.25758818532903D+03
 E2 =    -0.8246748566D+00 EUMP2 =    -0.25758818279161D+03
 Optimization completed.
    -- Stationary point found.
 Normal termination of Gaussian 09 at Wed Dec  4 09:28:44 2013.

 ----------------------------------------------------------------------
 #N Geom=AllCheck Guess=TCheck SCRF=Check GenChk RMP3-Full/6-31+G(d,p)
 Freq
 ----------------------------------------------------------------------

 Structure from the checkpoint file:  "/tmp/rdj3/g09-31766/Gau-21065.chk"
 ------------------------------------------------------------------
 1H-tetrazole CH2N4 casno=288948 state=1 config=1 method=71 basis=4
 ------------------------------------------------------------------
 Charge =  0 Multiplicity = 1

                         Standard orientation:
 ---------------------------------------------------------------------
 Center     Atomic      Atomic             Coordinates (Angstroms)
 Number     Number       Type             X           Y           Z
 ---------------------------------------------------------------------
      1          6           0        1.067435    0.234585    0.000000
      2          7           0        0.000000    1.053229    0.000000
      3          7           0       -1.117157    0.304643    0.000000
      4          7           0       -0.724454   -0.925958    0.000000
      5          7           0        0.636558   -1.006186    0.000000
      6          1           0        2.089741    0.557734    0.000000
      7          1           0       -0.058976    2.054652    0.000000
 ---------------------------------------------------------------------

 E2 =    -0.8246748435D+00 EUMP2 =    -0.25758818277854D+03
 E2 =    -0.8247311519D+00 EUMP2 =    -0.25758819351669D+03
 E2 =    -0.8246187404D+00 EUMP2 =    -0.25758816864011D+03
 E2 =    -0.8247206238D+00 EUMP2 =    -0.25758819861245D+03
 E2 =    -0.8246290559D+00 EUMP2 =    -0.25758816437961D+03
 E2 =    -0.8246622215D+00 EUMP2 =    -0.25758818848238D+03
 E2 =    -0.8246875605D+00 EUMP2 =    -0.25758817547056D+03
 E2 =    -0.8245408614D+00 EUMP2 =    -0.25758813825449D+03
 E2 =    -0.8248089771D+00 EUMP2 =    -0.25758822511792D+03
 E2 =    -0.8246749297D+00 EUMP2 =    -0.25758818257004D+03
 E2 =    -0.8247066224D+00 EUMP2 =    -0.25758818254243D+03
 E2 =    -0.8246431287D+00 EUMP2 =    -0.25758818151070D+03
 E2 =    -0.8245939984D+00 EUMP2 =    -0.25758815761086D+03
 E2 =    -0.8247557921D+00 EUMP2 =    -0.25758820562681D+03
 E2 =    -0.8246749074D+00 EUMP2 =    -0.25758818258937D+03
 SCF Done:  E(RHF) =  -256.763501425     A.U. after    7 cycles
 E2 =    -0.8246834984D+00 EUMP2 =    -0.25758818492369D+03
 SCF Done:  E(RHF) =  -256.763513082     A.U. after    8 cycles
 E2 =    -0.8246661980D+00 EUMP2 =    -0.25758817927977D+03
 SCF Done:  E(RHF) =  -256.763505481     A.U. after    8 cycles
 E2 =    -0.8246783186D+00 EUMP2 =    -0.25758818380000D+03
 SCF Done:  E(RHF) =  -256.763510054     A.U. after    9 cycles
 E2 =    -0.8246713678D+00 EUMP2 =    -0.25758818142229D+03
 SCF Done:  E(RHF) =  -256.763507879     A.U. after    7 cycles
 E2 =    -0.8246748477D+00 EUMP2 =    -0.25758818272693D+03
 SCF Done:  E(RHF) =  -256.763509347     A.U. after    8 cycles
 E2 =    -0.8246720882D+00 EUMP2 =    -0.25758818143520D+03
 SCF Done:  E(RHF) =  -256.763506251     A.U. after    8 cycles
 E2 =    -0.8246776306D+00 EUMP2 =    -0.25758818388152D+03
 SCF Done:  E(RHF) =  -256.763489381     A.U. after    7 cycles
 E2 =    -0.8247025329D+00 EUMP2 =    -0.25758819191422D+03
 SCF Done:  E(RHF) =  -256.763524657     A.U. after    9 cycles
 E2 =    -0.8246471612D+00 EUMP2 =    -0.25758817181842D+03
 SCF Done:  E(RHF) =  -256.763507900     A.U. after    6 cycles
 E2 =    -0.8246748439D+00 EUMP2 =    -0.25758818274369D+03

 Alpha  occ. eigenvalues --  -15.69660 -15.67750 -15.66003 -15.61791 -11.34769
 Alpha  occ. eigenvalues --   -1.50349  -1.26445  -1.20292  -0.91546  -0.89651
 Alpha  occ. eigenvalues --   -0.80680  -0.68382  -0.68134  -0.57352  -0.48378
 Alpha  occ. eigenvalues --   -0.47684  -0.46010  -0.42351
 Alpha virt. eigenvalues --    0.05145   0.08219   0.08740   0.10066   0.12984
 Alpha virt. eigenvalues --    0.14751   0.16255   0.17547   0.18929   0.20636
 Alpha virt. eigenvalues --    0.22235   0.23568   0.24630   0.27355   0.28950

 Mulliken charges:
               1
     1  C    0.077454
     2  N   -0.333140
     3  N   -0.001089
     4  N   -0.017305
     5  N   -0.276490
     6  H    0.194772
     7  H    0.355798
 Sum of Mulliken charges =   0.00000

 Dipole moment (field-independent basis, Debye):
    X=              2.6326    Y=              4.9993    Z=              0.0017  Tot=              5.6501
 Quadrupole moment (field-independent basis, Debye-Ang):
   XX=            -29.8187   YY=            -27.3142   ZZ=            -29.2057
   XY=              1.9893   XZ=             -0.0001   YZ=              0.0040

                      1                      2                      3
                     A"                     A"                     A"
 Frequencies --    561.6088               694.0628               731.0280
 Red. masses --      2.0691                 1.9939                 6.1671
 Frc consts  --      0.3845                 0.5659                 1.9418
 IR Inten    --     81.2728                14.4423                12.5113

                      4                      5                      6
                     A"                     A'                     A'
 Frequencies --    862.5565              1002.3988              1034.5897
 Red. masses --      1.2779                 5.2247                 7.3423
 Frc consts  --      0.5602                 3.0931                 4.6304
 IR Inten    --     27.1794                 1.5128                 0.6103

                      7                      8                      9
                     A'                     A'                     A'
 Frequencies --   1108.0710              1131.6738              1186.3280
 Red. masses --      6.0204                 2.7397                 1.7687
 Frc consts  --      4.3552                 2.0673                 1.4666
 IR Inten    --     24.2719                24.9392                11.9211

                     10                     11                     12
                     A'                     A'                     A'
 Frequencies --   1324.2662              1358.4769              1540.0432
 Red. masses --      3.0131                 7.4286                 2.9887
 Frc consts  --      3.1133                 8.0772                 4.1764
 IR Inten    --      0.5655                18.0552                18.3152

                     13                     14                     15
                     A'                     A'                     A'
 Frequencies --   1576.9864              3399.1032              3794.2783
 Red. masses --      3.4517                 1.1015                 1.0840
 Frc consts  --      5.0575                 7.4984                 9.1950
 IR Inten    --     20.5115                 2.0285               127.5061

 - Thermochemistry -
 -------------------
 Temperature   298.150 Kelvin.  Pressure   1.00000 Atm.
 Atom     1 has atomic number  6 and mass  12.00000

 Molecular mass:    70.02795 amu.
 Principal axes and moments of inertia in atomic units:
                           1         2         3
     Eigenvalues --   171.16215 174.04510 345.20725
           X            0.85419   0.51996   0.00000
           Y           -0.51996   0.85419   0.00000
           Z            0.00000   0.00000   1.00000
 This molecule is an asymmetric top.
 Rotational symmetry number  1.
 Rotational temperatures (Kelvin)      0.50603     0.49765     0.25090
 Rotational constants (GHZ):          10.54404    10.36939     5.22799
 Zero-point vibrational energy     127435.0 (Joules/Mol)
                                   30.45770 (Kcal/Mol)
 Warning -- explicit consideration of   1 degrees of freedom as
           vibrations may cause significant error
 Vibrational temperatures:    808.03   998.60  1051.78  1241.02  1442.23
          (Kelvin)           1488.54  1594.27  1628.22  1706.86  1905.32
                             1954.54  2215.78  2268.93  4890.55  5459.11

 Zero-point correction=                           0.048537 (Hartree/Particle)
 Thermal correction to Energy=                    0.051990
 Thermal correction to Enthalpy=                  0.052934
 Thermal correction to Gibbs Free Energy=         0.022446
 Sum of electronic and zero-point Energies=           -257.534976
 Sum of electronic and thermal Energies=              -257.531524
 Sum of electronic and thermal Enthalpies=            -257.530580
 Sum of electronic and thermal Free Energies=         -257.561067

                     E (Thermal)             CV                S
                      KCal/Mol        Cal/Mol-Kelvin    Cal/Mol-Kelvin
 Total                   32.624             11.078             64.166
 Electronic               0.000              0.000              0.000
 Translational            0.889              2.981             38.656
 Rotational               0.889              2.981             23.846
 Vibrational             30.847              5.116              1.665
 Vibration     1          0.917              1.114              0.521

 Optimization completed.
    -- Stationary point found.
 Normal termination of Gaussian 09 at Wed Dec  4 10:24:30 2013.
