 Gaussian 09, Revision D.01,
 Gaussian 09:  EM64L-G09RevD.01 24-Apr-2013

 -------------------------
 #MP3=FULL/6-31G* opt freq
 -------------------------

 ------------------------------------------------------------------
 1H-tetrazole CH2N4 casno=288948 state=1 config=1 method=71 basis=1
 ------------------------------------------------------------------
 Symbolic Z-matrix:
 Charge =  0 Multiplicity = 1

 SCF Done:  E(RHF) =  -256.754076285     A.U. after   15 cycles
 E2 =    -0.7928445395D+00 EUMP2 =    -0.25754692082486D+03
 SCF Done:  E(RHF) =  -256.750330624     A.U. after   13 cycles
 E2 =    -0.8028819266D+00 EUMP2 =    -0.25755321255095D+03
 SCF Done:  E(RHF) =  -256.749916856     A.U. after   12 cycles
 E2 =    -0.8035718684D+00 EUMP2 =    -0.25755348872400D+03
 SCF Done:  E(RHF) =  -256.749751177     A.U. after   11 cycles
 E2 =    -0.8038526827D+00 EUMP2 =    -0.25755360385989D+03
 SCF Done:  E(RHF) =  -256.749858842     A.U. after   10 cycles
 E2 =    -0.8037165193D+00 EUMP2 =    -0.25755357536139D+03
 Optimization completed.
    -- Stationary point found.
 Normal termination of Gaussian 09 at Mon Dec 16 14:12:07 2013.

 ----------------------------------------------------------------------
 #N Geom=AllCheck Guess=TCheck SCRF=Check GenChk RMP3-Full/6-31G(d) Fre
 q
 ----------------------------------------------------------------------

 Structure from the checkpoint file:  "/tmp/rdj3/g09-28781/Gau-28837.chk"
 ------------------------------------------------------------------
 1H-tetrazole CH2N4 casno=288948 state=1 config=1 method=71 basis=1
 ------------------------------------------------------------------
 Charge =  0 Multiplicity = 1

                         Standard orientation:
 ---------------------------------------------------------------------
 Center     Atomic      Atomic             Coordinates (Angstroms)
 Number     Number       Type             X           Y           Z
 ---------------------------------------------------------------------
      1          6           0        1.066215    0.234016    0.000000
      2          7           0        0.000000    1.052139    0.000000
      3          7           0       -1.117423    0.304627    0.000000
      4          7           0       -0.724132   -0.925515    0.000000
      5          7           0        0.637536   -1.005949    0.000000
      6          1           0        2.094042    0.559696    0.000000
      7          1           0       -0.063203    2.059099    0.000000
 ---------------------------------------------------------------------

 SCF Done:  E(RHF) =  -256.749858842     A.U. after    1 cycles
 E2 =    -0.8037165177D+00 EUMP2 =    -0.25755357535974D+03
 SCF Done:  E(RHF) =  -256.749824180     A.U. after    9 cycles
 E2 =    -0.8037635413D+00 EUMP2 =    -0.25755358772119D+03
 SCF Done:  E(RHF) =  -256.749889916     A.U. after   10 cycles
 E2 =    -0.8036697141D+00 EUMP2 =    -0.25755355962974D+03
 SCF Done:  E(RHF) =  -256.749831345     A.U. after   10 cycles
 E2 =    -0.8037596504D+00 EUMP2 =    -0.25755359099520D+03
 SCF Done:  E(RHF) =  -256.749883748     A.U. after   11 cycles
 E2 =    -0.8036734072D+00 EUMP2 =    -0.25755355715528D+03
 E2 =    -0.8037166353D+00 EUMP2 =    -0.25755357513155D+03
 E2 =    -0.8037286014D+00 EUMP2 =    -0.25755357722540D+03
 E2 =    -0.8037045239D+00 EUMP2 =    -0.25755357124736D+03
 E2 =    -0.8037347142D+00 EUMP2 =    -0.25755357399440D+03
 E2 =    -0.8036985230D+00 EUMP2 =    -0.25755357296033D+03
 E2 =    -0.8037165729D+00 EUMP2 =    -0.25755357519771D+03
 E2 =    -0.8036255972D+00 EUMP2 =    -0.25755355016220D+03
 E2 =    -0.8038076230D+00 EUMP2 =    -0.25755359856449D+03
 E2 =    -0.8038274062D+00 EUMP2 =    -0.25755361343399D+03
 E2 =    -0.8036056844D+00 EUMP2 =    -0.25755353535377D+03
 E2 =    -0.8037049976D+00 EUMP2 =    -0.25755358201379D+03
 E2 =    -0.8037281457D+00 EUMP2 =    -0.25755356710428D+03
 E2 =    -0.8035839090D+00 EUMP2 =    -0.25755353203368D+03
 E2 =    -0.8038493003D+00 EUMP2 =    -0.25755361650594D+03
 E2 =    -0.8037166048D+00 EUMP2 =    -0.25755357514885D+03
 E2 =    -0.8037475996D+00 EUMP2 =    -0.25755357402317D+03
 E2 =    -0.8036855112D+00 EUMP2 =    -0.25755357519971D+03
 E2 =    -0.8036365395D+00 EUMP2 =    -0.25755355094476D+03
 E2 =    -0.8037966267D+00 EUMP2 =    -0.25755359746227D+03
 E2 =    -0.8037165836D+00 EUMP2 =    -0.25755357517002D+03
 SCF Done:  E(RHF) =  -256.749843096     A.U. after    7 cycles
 E2 =    -0.8037329041D+00 EUMP2 =    -0.25755357600037D+03
 SCF Done:  E(RHF) =  -256.749873254     A.U. after    8 cycles
 E2 =    -0.8037001612D+00 EUMP2 =    -0.25755357341488D+03
 SCF Done:  E(RHF) =  -256.749853868     A.U. after    8 cycles
 E2 =    -0.8037221590D+00 EUMP2 =    -0.25755357602679D+03
 SCF Done:  E(RHF) =  -256.749863478     A.U. after    9 cycles
 E2 =    -0.8037109022D+00 EUMP2 =    -0.25755357438027D+03
 SCF Done:  E(RHF) =  -256.749858782     A.U. after    7 cycles
 E2 =    -0.8037165355D+00 EUMP2 =    -0.25755357531765D+03
 SCF Done:  E(RHF) =  -256.749861489     A.U. after    7 cycles
 E2 =    -0.8037127433D+00 EUMP2 =    -0.25755357423266D+03
 SCF Done:  E(RHF) =  -256.749855913     A.U. after    8 cycles
 E2 =    -0.8037203549D+00 EUMP2 =    -0.25755357626828D+03
 SCF Done:  E(RHF) =  -256.749831117     A.U. after    7 cycles
 E2 =    -0.8037515760D+00 EUMP2 =    -0.25755358269328D+03
 SCF Done:  E(RHF) =  -256.749884794     A.U. after    8 cycles
 E2 =    -0.8036814853D+00 EUMP2 =    -0.25755356627944D+03
 SCF Done:  E(RHF) =  -256.749858803     A.U. after    6 cycles
 E2 =    -0.8037165302D+00 EUMP2 =    -0.25755357533326D+03

 Alpha  occ. eigenvalues --  -15.68954 -15.66856 -15.65061 -15.60805 -11.34143
 Alpha  occ. eigenvalues --   -1.49563  -1.25634  -1.19557  -0.90708  -0.88954
 Alpha  occ. eigenvalues --   -0.80000  -0.67617  -0.67539  -0.56731  -0.47717
 Alpha  occ. eigenvalues --   -0.47026  -0.45342  -0.41739
 Alpha virt. eigenvalues --    0.14030   0.18931   0.19694   0.25172   0.36828
 Alpha virt. eigenvalues --    0.38322   0.47622   0.50022   0.64947   0.73739
 Alpha virt. eigenvalues --    0.73874   0.82430   0.82803   0.89604   0.91855

 Mulliken charges:
               1
     1  C    0.233010
     2  N   -0.468145
     3  N   -0.028239
     4  N   -0.082461
     5  N   -0.301451
     6  H    0.236321
     7  H    0.410966
 Sum of Mulliken charges =   0.00000

 Dipole moment (field-independent basis, Debye):
    X=              2.5584    Y=              4.9246    Z=              0.0018  Tot=              5.5495
 Quadrupole moment (field-independent basis, Debye-Ang):
   XX=            -28.9760   YY=            -26.4549   ZZ=            -28.5348
   XY=              1.8654   XZ=             -0.0001   YZ=              0.0041

                      1                      2                      3
                     A"                     A"                     A"
 Frequencies --    586.9926               703.3250               748.0506
 Red. masses --      1.9035                 1.9737                 7.0665
 Frc consts  --      0.3864                 0.5752                 2.3298
 IR Inten    --     98.9545                12.2593                11.0774

                      4                      5                      6
                     A"                     A'                     A'
 Frequencies --    868.2807              1005.7783              1039.5664
 Red. masses --      1.3242                 5.0269                 7.1515
 Frc consts  --      0.5882                 2.9961                 4.5536
 IR Inten    --     22.1238                 1.8331                 1.5881

                      7                      8                      9
                     A'                     A'                     A'
 Frequencies --   1111.5129              1134.3239              1191.6545
 Red. masses --      5.9147                 2.6464                 1.7555
 Frc consts  --      4.3054                 2.0062                 1.4688
 IR Inten    --     21.3883                27.9561                12.4627

                     10                     11                     12
                     A'                     A'                     A'
 Frequencies --   1326.1354              1361.4844              1539.0393
 Red. masses --      2.9054                 8.2280                 2.9905
 Frc consts  --      3.0104                 8.9860                 4.1734
 IR Inten    --      0.2880                18.6327                19.3298

                     13                     14                     15
                     A'                     A'                     A'
 Frequencies --   1577.8933              3362.1134              3730.1589
 Red. masses --      3.8515                 1.1020                 1.0843
 Frc consts  --      5.6498                 7.3396                 8.8887
 IR Inten    --     18.6395                 1.3875               118.8007

 - Thermochemistry -
 -------------------
 Temperature   298.150 Kelvin.  Pressure   1.00000 Atm.
 Atom     1 has atomic number  6 and mass  12.00000

 Molecular mass:    70.02795 amu.
 Principal axes and moments of inertia in atomic units:
                           1         2         3
     Eigenvalues --   170.97168 174.14001 345.11168
           X            0.85530   0.51813   0.00000
           Y           -0.51813   0.85530   0.00000
           Z            0.00000   0.00000   1.00000
 This molecule is an asymmetric top.
 Rotational symmetry number  1.
 Rotational temperatures (Kelvin)      0.50660     0.49738     0.25097
 Rotational constants (GHZ):          10.55579    10.36374     5.22944
 Zero-point vibrational energy     127320.4 (Joules/Mol)
                                   30.43031 (Kcal/Mol)
 Warning -- explicit consideration of   1 degrees of freedom as
           vibrations may cause significant error
 Vibrational temperatures:    844.55  1011.93  1076.28  1249.26  1447.09
          (Kelvin)           1495.70  1599.22  1632.04  1714.52  1908.01
                             1958.87  2214.33  2270.23  4837.33  5366.86

 Zero-point correction=                           0.048494 (Hartree/Particle)
 Thermal correction to Energy=                    0.051918
 Thermal correction to Enthalpy=                  0.052862
 Thermal correction to Gibbs Free Energy=         0.022415
 Sum of electronic and zero-point Energies=           -257.501638
 Sum of electronic and thermal Energies=              -257.498215
 Sum of electronic and thermal Enthalpies=            -257.497270
 Sum of electronic and thermal Free Energies=         -257.527717

                     E (Thermal)             CV                S
                      KCal/Mol        Cal/Mol-Kelvin    Cal/Mol-Kelvin
 Total                   32.579             10.947             64.080
 Electronic               0.000              0.000              0.000
 Translational            0.889              2.981             38.656
 Rotational               0.889              2.981             23.845
 Vibrational             30.801              4.985              1.579
 Vibration     1          0.944              1.060              0.473

 Optimization completed.
    -- Stationary point found.
 Normal termination of Gaussian 09 at Mon Dec 16 14:25:42 2013.
