 Gaussian 09, Revision D.01,
 Gaussian 09:  EM64L-G09RevD.01 24-Apr-2013

 --------------------------
 #MP3=FULL/cc-pVTZ opt freq
 --------------------------

 ------------------------------------------------------------------
 1H-tetrazole CH2N4 casno=288948 state=1 config=1 method=71 basis=6
 ------------------------------------------------------------------
 Symbolic Z-matrix:
 Charge =  0 Multiplicity = 1

 SCF Done:  E(RHF) =  -256.848466948     A.U. after   14 cycles
 E2 =    -0.1023992532D+01 EUMP2 =    -0.25787245947918D+03
 SCF Done:  E(RHF) =  -256.846897947     A.U. after   11 cycles
 E2 =    -0.1028116547D+01 EUMP2 =    -0.25787501449455D+03
 SCF Done:  E(RHF) =  -256.846618373     A.U. after   10 cycles
 E2 =    -0.1028636494D+01 EUMP2 =    -0.25787525486755D+03
 SCF Done:  E(RHF) =  -256.846577338     A.U. after    9 cycles
 E2 =    -0.1028734763D+01 EUMP2 =    -0.25787531210054D+03
 SCF Done:  E(RHF) =  -256.846609861     A.U. after    8 cycles
 E2 =    -0.1028696635D+01 EUMP2 =    -0.25787530649682D+03
 Optimization completed.
    -- Stationary point found.
 Normal termination of Gaussian 09 at Mon Dec 16 16:36:21 2013.

 ----------------------------------------------------------------------
 #N Geom=AllCheck Guess=TCheck SCRF=Check GenChk RMP3-Full/CC-pVTZ Freq
 ----------------------------------------------------------------------

 Structure from the checkpoint file:  "/tmp/rdj3/g09-28781/Gau-6131.chk"
 ------------------------------------------------------------------
 1H-tetrazole CH2N4 casno=288948 state=1 config=1 method=71 basis=6
 ------------------------------------------------------------------
 Charge =  0 Multiplicity = 1

                         Standard orientation:
 ---------------------------------------------------------------------
 Center     Atomic      Atomic             Coordinates (Angstroms)
 Number     Number       Type             X           Y           Z
 ---------------------------------------------------------------------
      1          6           0        1.057503    0.229626    0.000000
      2          7           0        0.000000    1.045240    0.000000
      3          7           0       -1.105698    0.302082    0.000000
      4          7           0       -0.719831   -0.914841    0.000000
      5          7           0        0.630820   -0.999906    0.000000
      6          1           0        2.074220    0.552848    0.000000
      7          1           0       -0.056272    2.041374    0.000000
 ---------------------------------------------------------------------

 SCF Done:  E(RHF) =  -256.846609861     A.U. after    1 cycles
 E2 =    -0.1028696642D+01 EUMP2 =    -0.25787530650321D+03
 SCF Done:  E(RHF) =  -256.846579106     A.U. after    9 cycles
 E2 =    -0.1028740269D+01 EUMP2 =    -0.25787531937536D+03
 SCF Done:  E(RHF) =  -256.846636967     A.U. after    9 cycles
 E2 =    -0.1028653322D+01 EUMP2 =    -0.25787529028879D+03
 SCF Done:  E(RHF) =  -256.846588054     A.U. after    9 cycles
 E2 =    -0.1028735558D+01 EUMP2 =    -0.25787532361195D+03
 SCF Done:  E(RHF) =  -256.846629033     A.U. after   10 cycles
 E2 =    -0.1028657823D+01 EUMP2 =    -0.25787528685545D+03
 E2 =    -0.1028696739D+01 EUMP2 =    -0.25787530625689D+03
 E2 =    -0.1028704008D+01 EUMP2 =    -0.25787530760951D+03
 E2 =    -0.1028689477D+01 EUMP2 =    -0.25787530323263D+03
 E2 =    -0.1028710093D+01 EUMP2 =    -0.25787530322296D+03
 E2 =    -0.1028683486D+01 EUMP2 =    -0.25787530601610D+03
 E2 =    -0.1028696687D+01 EUMP2 =    -0.25787530633619D+03
 E2 =    -0.1028626465D+01 EUMP2 =    -0.25787528065032D+03
 E2 =    -0.1028767093D+01 EUMP2 =    -0.25787533039158D+03
 E2 =    -0.1028796614D+01 EUMP2 =    -0.25787534783920D+03
 E2 =    -0.1028596833D+01 EUMP2 =    -0.25787526324583D+03
 E2 =    -0.1028696419D+01 EUMP2 =    -0.25787531328688D+03
 E2 =    -0.1028697040D+01 EUMP2 =    -0.25787529813071D+03
 E2 =    -0.1028583936D+01 EUMP2 =    -0.25787525961682D+03
 E2 =    -0.1028809637D+01 EUMP2 =    -0.25787535121626D+03
 E2 =    -0.1028696731D+01 EUMP2 =    -0.25787530629950D+03
 E2 =    -0.1028716247D+01 EUMP2 =    -0.25787530463742D+03
 E2 =    -0.1028677217D+01 EUMP2 =    -0.25787530693066D+03
 E2 =    -0.1028630517D+01 EUMP2 =    -0.25787527944428D+03
 E2 =    -0.1028762985D+01 EUMP2 =    -0.25787533128873D+03
 E2 =    -0.1028696710D+01 EUMP2 =    -0.25787530632041D+03
 SCF Done:  E(RHF) =  -256.846609036     A.U. after    6 cycles
 E2 =    -0.1028699752D+01 EUMP2 =    -0.25787530878746D+03
 SCF Done:  E(RHF) =  -256.846609326     A.U. after    7 cycles
 E2 =    -0.1028693623D+01 EUMP2 =    -0.25787530294944D+03
 SCF Done:  E(RHF) =  -256.846608835     A.U. after    6 cycles
 E2 =    -0.1028698857D+01 EUMP2 =    -0.25787530769147D+03
 SCF Done:  E(RHF) =  -256.846610555     A.U. after    7 cycles
 E2 =    -0.1028694488D+01 EUMP2 =    -0.25787530504282D+03
 SCF Done:  E(RHF) =  -256.846609806     A.U. after    6 cycles
 E2 =    -0.1028696664D+01 EUMP2 =    -0.25787530647090D+03
 SCF Done:  E(RHF) =  -256.846611209     A.U. after    6 cycles
 E2 =    -0.1028693973D+01 EUMP2 =    -0.25787530518189D+03
 SCF Done:  E(RHF) =  -256.846608244     A.U. after    6 cycles
 E2 =    -0.1028699398D+01 EUMP2 =    -0.25787530764216D+03
 SCF Done:  E(RHF) =  -256.846595222     A.U. after    7 cycles
 E2 =    -0.1028721500D+01 EUMP2 =    -0.25787531672209D+03
 SCF Done:  E(RHF) =  -256.846622661     A.U. after    7 cycles
 E2 =    -0.1028671829D+01 EUMP2 =    -0.25787529448999D+03
 SCF Done:  E(RHF) =  -256.846609828     A.U. after    5 cycles
 E2 =    -0.1028696662D+01 EUMP2 =    -0.25787530649040D+03

 Alpha  occ. eigenvalues --  -15.67904 -15.65845 -15.64159 -15.59928 -11.33169
 Alpha  occ. eigenvalues --   -1.50412  -1.26042  -1.19864  -0.91002  -0.89298
 Alpha  occ. eigenvalues --   -0.80415  -0.68306  -0.67969  -0.56981  -0.47763
 Alpha  occ. eigenvalues --   -0.46986  -0.45688  -0.42018
 Alpha virt. eigenvalues --    0.11652   0.13682   0.15866   0.18216   0.27012
 Alpha virt. eigenvalues --    0.29424   0.35705   0.41353   0.42294   0.47721
 Alpha virt. eigenvalues --    0.51645   0.55670   0.56654   0.57744   0.59404

 Mulliken charges:
               1
     1  C   -0.079190
     2  N   -0.027708
     3  N   -0.068225
     4  N   -0.076886
     5  N   -0.152162
     6  H    0.186429
     7  H    0.217741
 Sum of Mulliken charges =   0.00000

 Dipole moment (field-independent basis, Debye):
    X=              2.4539    Y=              4.7722    Z=              0.0016  Tot=              5.3661
 Quadrupole moment (field-independent basis, Debye-Ang):
   XX=            -28.9831   YY=            -26.4692   ZZ=            -28.3795
   XY=              1.8416   XZ=             -0.0001   YZ=              0.0038

                      1                      2                      3
                     A"                     A"                     A"
 Frequencies --    625.8546               714.3096               763.8274
 Red. masses --      1.8361                 1.9493                 6.9973
 Frc consts  --      0.4237                 0.5860                 2.4053
 IR Inten    --     79.7930                 9.9651                11.1167

                      4                      5                      6
                     A"                     A'                     A'
 Frequencies --    929.3544              1010.3927              1044.2109
 Red. masses --      1.3730                 5.0200                 7.2295
 Frc consts  --      0.6987                 3.0195                 4.6445
 IR Inten    --     15.4630                 1.8288                 1.7078

                      7                      8                      9
                     A'                     A'                     A'
 Frequencies --   1107.2458              1131.8223              1189.1060
 Red. masses --      5.0917                 2.6372                 1.9149
 Frc consts  --      3.6779                 1.9905                 1.5953
 IR Inten    --     21.7783                24.4247                14.0487

                     10                     11                     12
                     A'                     A'                     A'
 Frequencies --   1328.5763              1370.6974              1537.2753
 Red. masses --      2.8042                 8.3055                 2.8936
 Frc consts  --      2.9163                 9.1939                 4.0289
 IR Inten    --      0.2070                15.9156                16.0417

                     13                     14                     15
                     A'                     A'                     A'
 Frequencies --   1581.8644              3367.1770              3776.7087
 Red. masses --      3.8959                 1.1017                 1.0839
 Frc consts  --      5.7437                 7.3593                 9.1091
 IR Inten    --     16.1001                 1.6424               120.8766

 - Thermochemistry -
 -------------------
 Temperature   298.150 Kelvin.  Pressure   1.00000 Atm.
 Atom     1 has atomic number  6 and mass  12.00000

 Molecular mass:    70.02795 amu.
 Principal axes and moments of inertia in atomic units:
                           1         2         3
     Eigenvalues --   168.05377 171.16826 339.22203
           X            0.82214   0.56928   0.00000
           Y           -0.56928   0.82214   0.00000
           Z            0.00000   0.00000   1.00000
 This molecule is an asymmetric top.
 Rotational symmetry number  1.
 Rotational temperatures (Kelvin)      0.51539     0.50602     0.25533
 Rotational constants (GHZ):          10.73907    10.54367     5.32024
 Zero-point vibrational energy     128469.5 (Joules/Mol)
                                   30.70495 (Kcal/Mol)
 Vibrational temperatures:    900.46  1027.73  1098.98  1337.13  1453.73
          (Kelvin)           1502.38  1593.08  1628.44  1710.86  1911.52
                             1972.13  2211.79  2275.95  4844.61  5433.83

 Zero-point correction=                           0.048931 (Hartree/Particle)
 Thermal correction to Energy=                    0.052311
 Thermal correction to Enthalpy=                  0.053256
 Thermal correction to Gibbs Free Energy=         0.022895
 Sum of electronic and zero-point Energies=           -257.818493
 Sum of electronic and thermal Energies=              -257.815113
 Sum of electronic and thermal Enthalpies=            -257.814169
 Sum of electronic and thermal Free Energies=         -257.844529

                     E (Thermal)             CV                S
                      KCal/Mol        Cal/Mol-Kelvin    Cal/Mol-Kelvin
 Total                   32.826             10.725             63.899
 Electronic               0.000              0.000              0.000
 Translational            0.889              2.981             38.656
 Rotational               0.889              2.981             23.794
 Vibrational             31.048              4.763              1.449

 Optimization completed.
    -- Stationary point found.
 Normal termination of Gaussian 09 at Tue Dec 17 05:35:06 2013.
