 Gaussian 09, Revision D.01,
 Gaussian 09:  EM64L-G09RevD.01 24-Apr-2013

 -----------------------
 #MP3=FULL/TZVP opt freq
 -----------------------

 -------------------------------------------------------------------
 1H-tetrazole CH2N4 casno=288948 state=1 config=1 method=71 basis=32
 -------------------------------------------------------------------
 Symbolic Z-matrix:
 Charge =  0 Multiplicity = 1

 SCF Done:  E(RHF) =  -256.833827633     A.U. after   14 cycles
 E2 =    -0.9082276717D+00 EUMP2 =    -0.25774205530435D+03
 SCF Done:  E(RHF) =  -256.831128454     A.U. after   12 cycles
 E2 =    -0.9150852012D+00 EUMP2 =    -0.25774621365562D+03
 SCF Done:  E(RHF) =  -256.830705976     A.U. after   11 cycles
 E2 =    -0.9157546406D+00 EUMP2 =    -0.25774646061639D+03
 SCF Done:  E(RHF) =  -256.830600867     A.U. after   10 cycles
 E2 =    -0.9159325929D+00 EUMP2 =    -0.25774653345971D+03
 SCF Done:  E(RHF) =  -256.830676884     A.U. after    9 cycles
 E2 =    -0.9158313792D+00 EUMP2 =    -0.25774650826300D+03
 Optimization completed.
    -- Stationary point found.
 Normal termination of Gaussian 09 at Mon Dec 16 14:31:54 2013.

 -------------------------------------------------------------------
 #N Geom=AllCheck Guess=TCheck SCRF=Check GenChk RMP3-Full/TZVP Freq
 -------------------------------------------------------------------

 Structure from the checkpoint file:  "/tmp/rdj3/g09-28781/Gau-1173.chk"
 -------------------------------------------------------------------
 1H-tetrazole CH2N4 casno=288948 state=1 config=1 method=71 basis=32
 -------------------------------------------------------------------
 Charge =  0 Multiplicity = 1

                         Standard orientation:
 ---------------------------------------------------------------------
 Center     Atomic      Atomic             Coordinates (Angstroms)
 Number     Number       Type             X           Y           Z
 ---------------------------------------------------------------------
      1          6           0        1.062489    0.231304    0.000000
      2          7           0        0.000000    1.050297    0.000000
      3          7           0       -1.112630    0.301691    0.000000
      4          7           0       -0.723383   -0.919925    0.000000
      5          7           0        0.636050   -1.002559    0.000000
      6          1           0        2.084891    0.554401    0.000000
      7          1           0       -0.060081    2.051252    0.000000
 ---------------------------------------------------------------------

 SCF Done:  E(RHF) =  -256.830676884     A.U. after    1 cycles
 E2 =    -0.9158313804D+00 EUMP2 =    -0.25774650826415D+03
 SCF Done:  E(RHF) =  -256.830641127     A.U. after    9 cycles
 E2 =    -0.9158776888D+00 EUMP2 =    -0.25774651881551D+03
 SCF Done:  E(RHF) =  -256.830709064     A.U. after    9 cycles
 E2 =    -0.9157853212D+00 EUMP2 =    -0.25774649438568D+03
 SCF Done:  E(RHF) =  -256.830651318     A.U. after    9 cycles
 E2 =    -0.9158731404D+00 EUMP2 =    -0.25774652445841D+03
 SCF Done:  E(RHF) =  -256.830699892     A.U. after   10 cycles
 E2 =    -0.9157896722D+00 EUMP2 =    -0.25774648956470D+03
 E2 =    -0.9158315133D+00 EUMP2 =    -0.25774650806931D+03
 E2 =    -0.9158413311D+00 EUMP2 =    -0.25774651078815D+03
 E2 =    -0.9158215518D+00 EUMP2 =    -0.25774650359245D+03
 E2 =    -0.9158511557D+00 EUMP2 =    -0.25774650595143D+03
 E2 =    -0.9158118344D+00 EUMP2 =    -0.25774650681888D+03
 E2 =    -0.9158314677D+00 EUMP2 =    -0.25774650815123D+03
 E2 =    -0.9157485358D+00 EUMP2 =    -0.25774648312948D+03
 E2 =    -0.9159144494D+00 EUMP2 =    -0.25774653145297D+03
 E2 =    -0.9159364792D+00 EUMP2 =    -0.25774654655631D+03
 E2 =    -0.9157263809D+00 EUMP2 =    -0.25774646809511D+03
 E2 =    -0.9158244215D+00 EUMP2 =    -0.25774651432199D+03
 E2 =    -0.9158384761D+00 EUMP2 =    -0.25774650066266D+03
 E2 =    -0.9157087734D+00 EUMP2 =    -0.25774646452923D+03
 E2 =    -0.9159541924D+00 EUMP2 =    -0.25774654983633D+03
 E2 =    -0.9158314747D+00 EUMP2 =    -0.25774650806754D+03
 E2 =    -0.9158592796D+00 EUMP2 =    -0.25774650784494D+03
 E2 =    -0.9158035925D+00 EUMP2 =    -0.25774650725763D+03
 E2 =    -0.9157547421D+00 EUMP2 =    -0.25774648254108D+03
 E2 =    -0.9159081652D+00 EUMP2 =    -0.25774653169416D+03
 E2 =    -0.9158314528D+00 EUMP2 =    -0.25774650808786D+03
 SCF Done:  E(RHF) =  -256.830669532     A.U. after    7 cycles
 E2 =    -0.9158404499D+00 EUMP2 =    -0.25774650998172D+03
 SCF Done:  E(RHF) =  -256.830682900     A.U. after    7 cycles
 E2 =    -0.9158223464D+00 EUMP2 =    -0.25774650524596D+03
 SCF Done:  E(RHF) =  -256.830674023     A.U. after    7 cycles
 E2 =    -0.9158351282D+00 EUMP2 =    -0.25774650915143D+03
 SCF Done:  E(RHF) =  -256.830679412     A.U. after    8 cycles
 E2 =    -0.9158276518D+00 EUMP2 =    -0.25774650706339D+03
 SCF Done:  E(RHF) =  -256.830676828     A.U. after    7 cycles
 E2 =    -0.9158313945D+00 EUMP2 =    -0.25774650822287D+03
 SCF Done:  E(RHF) =  -256.830678589     A.U. after    6 cycles
 E2 =    -0.9158284148D+00 EUMP2 =    -0.25774650700366D+03
 SCF Done:  E(RHF) =  -256.830674904     A.U. after    7 cycles
 E2 =    -0.9158343980D+00 EUMP2 =    -0.25774650930237D+03
 SCF Done:  E(RHF) =  -256.830656686     A.U. after    7 cycles
 E2 =    -0.9158606425D+00 EUMP2 =    -0.25774651732837D+03
 SCF Done:  E(RHF) =  -256.830695280     A.U. after    8 cycles
 E2 =    -0.9158021422D+00 EUMP2 =    -0.25774649742192D+03
 SCF Done:  E(RHF) =  -256.830676848     A.U. after    6 cycles
 E2 =    -0.9158313934D+00 EUMP2 =    -0.25774650824159D+03

 Alpha  occ. eigenvalues --  -15.68497 -15.66591 -15.64782 -15.60560 -11.33919
 Alpha  occ. eigenvalues --   -1.50629  -1.26299  -1.20416  -0.91313  -0.89623
 Alpha  occ. eigenvalues --   -0.80714  -0.68299  -0.68206  -0.57303  -0.48155
 Alpha  occ. eigenvalues --   -0.47480  -0.45915  -0.42471
 Alpha virt. eigenvalues --    0.11206   0.12543   0.16797   0.17092   0.22162
 Alpha virt. eigenvalues --    0.23689   0.32804   0.33266   0.38644   0.40383
 Alpha virt. eigenvalues --    0.44041   0.47356   0.48743   0.49755   0.51333

 Mulliken charges:
               1
     1  C   -0.107113
     2  N   -0.083479
     3  N   -0.061564
     4  N   -0.077508
     5  N   -0.062979
     6  H    0.133878
     7  H    0.258765
 Sum of Mulliken charges =   0.00000

 Dipole moment (field-independent basis, Debye):
    X=              2.5353    Y=              4.9309    Z=              0.0017  Tot=              5.5445
 Quadrupole moment (field-independent basis, Debye-Ang):
   XX=            -29.5913   YY=            -27.0819   ZZ=            -28.7259
   XY=              1.8958   XZ=             -0.0001   YZ=              0.0039

                      1                      2                      3
                     A"                     A"                     A"
 Frequencies --    479.0217               688.5592               726.4498
 Red. masses --      1.9982                 2.1064                 6.4415
 Frc consts  --      0.2702                 0.5884                 2.0029
 IR Inten    --     72.8420                12.4081                10.0311

                      4                      5                      6
                     A"                     A'                     A'
 Frequencies --    839.4128               996.1884              1032.0269
 Red. masses --      1.2524                 5.5541                 7.9853
 Frc consts  --      0.5199                 3.2475                 5.0110
 IR Inten    --     29.9310                 1.6686                 1.0156

                      7                      8                      9
                     A'                     A'                     A'
 Frequencies --   1092.2066              1122.6515              1182.3119
 Red. masses --      4.9783                 2.8906                 1.8467
 Frc consts  --      3.4989                 2.1465                 1.5209
 IR Inten    --     25.2335                23.2727                14.0341

                     10                     11                     12
                     A'                     A'                     A'
 Frequencies --   1319.9984              1352.8403              1525.8032
 Red. masses --      2.8656                 7.1157                 2.9519
 Frc consts  --      2.9418                 7.6729                 4.0490
 IR Inten    --      0.5192                19.0889                17.1788

                     13                     14                     15
                     A'                     A'                     A'
 Frequencies --   1572.2584              3363.5263              3755.3771
 Red. masses --      3.4140                 1.1018                 1.0840
 Frc consts  --      4.9724                 7.3443                 9.0068
 IR Inten    --     19.7304                 1.7155               122.9242

 - Thermochemistry -
 -------------------
 Temperature   298.150 Kelvin.  Pressure   1.00000 Atm.
 Atom     1 has atomic number  6 and mass  12.00000

 Molecular mass:    70.02795 amu.
 Principal axes and moments of inertia in atomic units:
                           1         2         3
     Eigenvalues --   169.67894 172.94463 342.62357
           X            0.86605   0.49996   0.00000
           Y           -0.49996   0.86605   0.00000
           Z            0.00000   0.00000   1.00000
 This molecule is an asymmetric top.
 Rotational symmetry number  1.
 Rotational temperatures (Kelvin)      0.51046     0.50082     0.25280
 Rotational constants (GHZ):          10.63621    10.43537     5.26742
 Zero-point vibrational energy     125898.8 (Joules/Mol)
                                   30.09053 (Kcal/Mol)
 Warning -- explicit consideration of   1 degrees of freedom as
           vibrations may cause significant error
 Vibrational temperatures:    689.20   990.68  1045.20  1207.73  1433.29
          (Kelvin)           1484.85  1571.44  1615.24  1701.08  1899.18
                             1946.43  2195.29  2262.13  4839.36  5403.14

 Zero-point correction=                           0.047952 (Hartree/Particle)
 Thermal correction to Energy=                    0.051476
 Thermal correction to Enthalpy=                  0.052421
 Thermal correction to Gibbs Free Energy=         0.021834
 Sum of electronic and zero-point Energies=           -257.694406
 Sum of electronic and thermal Energies=              -257.690882
 Sum of electronic and thermal Enthalpies=            -257.689938
 Sum of electronic and thermal Free Energies=         -257.720525

                     E (Thermal)             CV                S
                      KCal/Mol        Cal/Mol-Kelvin    Cal/Mol-Kelvin
 Total                   32.302             11.356             64.375
 Electronic               0.000              0.000              0.000
 Translational            0.889              2.981             38.656
 Rotational               0.889              2.981             23.823
 Vibrational             30.524              5.394              1.895
 Vibration     1          0.835              1.297              0.713

 Optimization completed.
    -- Stationary point found.
 Normal termination of Gaussian 09 at Mon Dec 16 15:23:49 2013.
