 Gaussian 09, Revision D.01,
 Gaussian 09:  EM64L-G09RevD.01 24-Apr-2013

 -----------------------------------
 #MP3=FULL/cc-pVDZ opt=z-matrix freq
 -----------------------------------

 ------------------------------------------------------------------
 1H-tetrazole CH2N4 casno=288948 state=1 config=1 method=71 basis=5
 ------------------------------------------------------------------
 Symbolic Z-matrix:
 Charge =  0 Multiplicity = 1

 SCF Done:  E(RHF) =  -256.780056734     A.U. after   15 cycles
 E2 =    -0.7868768137D+00 EUMP2 =    -0.25756693354721D+03
 SCF Done:  E(RHF) =  -256.775982521     A.U. after   13 cycles
 E2 =    -0.7979224455D+00 EUMP2 =    -0.25757390496659D+03
 SCF Done:  E(RHF) =  -256.775708926     A.U. after   11 cycles
 E2 =    -0.7983900959D+00 EUMP2 =    -0.25757409902179D+03
 SCF Done:  E(RHF) =  -256.775572504     A.U. after   13 cycles
 E2 =    -0.7981501743D+00 EUMP2 =    -0.25757372267788D+03
 SCF Done:  E(RHF) =  -256.775563208     A.U. after   10 cycles
 E2 =    -0.7986539579D+00 EUMP2 =    -0.25757421716611D+03
 SCF Done:  E(RHF) =  -256.775772380     A.U. after   12 cycles
 E2 =    -0.7983666870D+00 EUMP2 =    -0.25757413906672D+03
 SCF Done:  E(RHF) =  -256.775558927     A.U. after   10 cycles
 E2 =    -0.7986823167D+00 EUMP2 =    -0.25757424124337D+03
 SCF Done:  E(RHF) =  -256.775658616     A.U. after   11 cycles
 E2 =    -0.7985927336D+00 EUMP2 =    -0.25757425134923D+03
 SCF Done:  E(RHF) =  -256.775594021     A.U. after    9 cycles
 E2 =    -0.7986449704D+00 EUMP2 =    -0.25757423899117D+03
 SCF Done:  E(RHF) =  -256.775659824     A.U. after   11 cycles
 E2 =    -0.7985571876D+00 EUMP2 =    -0.25757421701136D+03
 E2 =    -0.7986429986D+00 EUMP2 =    -0.25757424161916D+03
 E2 =    -0.7986359107D+00 EUMP2 =    -0.25757424322981D+03
 E2 =    -0.7986318176D+00 EUMP2 =    -0.25757424067340D+03
 E2 =    -0.7986310165D+00 EUMP2 =    -0.25757423989905D+03
 E2 =    -0.7986311898D+00 EUMP2 =    -0.25757424066661D+03
 E2 =    -0.7986362159D+00 EUMP2 =    -0.25757424418179D+03
 E2 =    -0.7986317970D+00 EUMP2 =    -0.25757424088490D+03
 E2 =    -0.7986211366D+00 EUMP2 =    -0.25757423745809D+03
 E2 =    -0.7986318180D+00 EUMP2 =    -0.25757424087848D+03
 Optimization completed.
    -- Stationary point found.
 Normal termination of Gaussian 09 at Wed Dec  4 10:33:27 2013.

 ----------------------------------------------------------------------
 #N Geom=AllCheck Guess=TCheck SCRF=Check GenChk RMP3-Full/CC-pVDZ Freq
 ----------------------------------------------------------------------

 Structure from the checkpoint file:  "/tmp/rdj3/g09-31766/Gau-26994.chk"
 ------------------------------------------------------------------
 1H-tetrazole CH2N4 casno=288948 state=1 config=1 method=71 basis=5
 ------------------------------------------------------------------
 Charge =  0 Multiplicity = 1

                         Standard orientation:
 ---------------------------------------------------------------------
 Center     Atomic      Atomic             Coordinates (Angstroms)
 Number     Number       Type             X           Y           Z
 ---------------------------------------------------------------------
      1          6           0        1.068818    0.230057    0.000000
      2          7           0        0.000000    1.054857    0.000000
      3          7           0       -1.115834    0.308315    0.000000
      4          7           0       -0.726715   -0.922462    0.000000
      5          7           0        0.633861   -1.012426    0.000000
      6          1           0        2.103559    0.557988    0.000000
      7          1           0       -0.055648    2.063683    0.000000
 ---------------------------------------------------------------------

 E2 =    -0.7986318138D+00 EUMP2 =    -0.25757424087429D+03
 E2 =    -0.7986203213D+00 EUMP2 =    -0.25757424720824D+03
 E2 =    -0.7986433992D+00 EUMP2 =    -0.25757423292350D+03
 E2 =    -0.7984996496D+00 EUMP2 =    -0.25757419807595D+03
 E2 =    -0.7987641345D+00 EUMP2 =    -0.25757428147718D+03
 E2 =    -0.7986318983D+00 EUMP2 =    -0.25757424065968D+03
 E2 =    -0.7986611191D+00 EUMP2 =    -0.25757424005755D+03
 E2 =    -0.7986025775D+00 EUMP2 =    -0.25757424020890D+03
 E2 =    -0.7985429496D+00 EUMP2 =    -0.25757421590431D+03
 E2 =    -0.7987207835D+00 EUMP2 =    -0.25757426353858D+03
 E2 =    -0.7986318788D+00 EUMP2 =    -0.25757424068224D+03
 SCF Done:  E(RHF) =  -256.775594354     A.U. after    7 cycles
 E2 =    -0.7986471495D+00 EUMP2 =    -0.25757424150338D+03
 SCF Done:  E(RHF) =  -256.775622457     A.U. after    7 cycles
 E2 =    -0.7986164945D+00 EUMP2 =    -0.25757423895121D+03
 SCF Done:  E(RHF) =  -256.775603766     A.U. after    7 cycles
 E2 =    -0.7986377947D+00 EUMP2 =    -0.25757424156092D+03
 SCF Done:  E(RHF) =  -256.775614028     A.U. after    8 cycles
 E2 =    -0.7986258548D+00 EUMP2 =    -0.25757423988271D+03
 SCF Done:  E(RHF) =  -256.775609002     A.U. after    6 cycles
 E2 =    -0.7986318286D+00 EUMP2 =    -0.25757424083071D+03
 SCF Done:  E(RHF) =  -256.775610843     A.U. after    6 cycles
 E2 =    -0.7986289323D+00 EUMP2 =    -0.25757423977512D+03
 SCF Done:  E(RHF) =  -256.775607013     A.U. after    7 cycles
 E2 =    -0.7986347520D+00 EUMP2 =    -0.25757424176495D+03
 SCF Done:  E(RHF) =  -256.775585510     A.U. after    7 cycles
 E2 =    -0.7986632469D+00 EUMP2 =    -0.25757424875725D+03
 SCF Done:  E(RHF) =  -256.775630836     A.U. after    8 cycles
 E2 =    -0.7986003899D+00 EUMP2 =    -0.25757423122568D+03
 SCF Done:  E(RHF) =  -256.775609025     A.U. after    6 cycles
 E2 =    -0.7986318231D+00 EUMP2 =    -0.25757424084776D+03

 Alpha  occ. eigenvalues --  -15.68404 -15.66159 -15.64370 -15.60437 -11.34315
 Alpha  occ. eigenvalues --   -1.49376  -1.25512  -1.19277  -0.90438  -0.88673
 Alpha  occ. eigenvalues --   -0.79503  -0.67327  -0.67263  -0.56467  -0.47543
 Alpha  occ. eigenvalues --   -0.46832  -0.45190  -0.41475
 Alpha virt. eigenvalues --    0.13964   0.15622   0.18861   0.19659   0.34671
 Alpha virt. eigenvalues --    0.38181   0.42799   0.48623   0.60115   0.66373
 Alpha virt. eigenvalues --    0.66992   0.75687   0.79713   0.82953   0.87111

 Mulliken charges:
               1
     1  C    0.214666
     2  N   -0.094697
     3  N   -0.055479
     4  N   -0.086654
     5  N   -0.203087
     6  H    0.079027
     7  H    0.146224
 Sum of Mulliken charges =   0.00000

 Dipole moment (field-independent basis, Debye):
    X=              2.4261    Y=              4.7558    Z=              0.0016  Tot=              5.3388
 Quadrupole moment (field-independent basis, Debye-Ang):
   XX=            -29.0867   YY=            -26.5412   ZZ=            -28.3704
   XY=              1.7723   XZ=             -0.0001   YZ=              0.0037

                      1                      2                      3
                     A"                     A"                     A"
 Frequencies --    578.6355               701.7725               750.0233
 Red. masses --      1.8250                 2.0631                 6.8138
 Frc consts  --      0.3600                 0.5986                 2.2584
 IR Inten    --     80.2039                 8.2828                10.2417

                      4                      5                      6
                     A"                     A'                     A'
 Frequencies --    878.8590               999.0641              1033.5803
 Red. masses --      1.3359                 4.2953                 6.7204
 Frc consts  --      0.6080                 2.5260                 4.2299
 IR Inten    --     18.9768                 1.7623                 2.1425

                      7                      8                      9
                     A'                     A'                     A'
 Frequencies --   1104.6954              1125.4130              1171.4446
 Red. masses --      4.5238                 2.3602                 2.0474
 Frc consts  --      3.2527                 1.7613                 1.6554
 IR Inten    --     22.3707                26.6122                10.1669

                     10                     11                     12
                     A'                     A'                     A'
 Frequencies --   1312.2103              1361.3359              1529.3228
 Red. masses --      3.1956                 8.2850                 2.9775
 Frc consts  --      3.2419                 9.0463                 4.1030
 IR Inten    --      0.0143                16.7219                16.9561

                     13                     14                     15
                     A'                     A'                     A'
 Frequencies --   1567.8396              3357.7850              3742.5501
 Red. masses --      4.3321                 1.1020                 1.0847
 Frc consts  --      6.2741                 7.3202                 8.9517
 IR Inten    --     14.2821                 1.5723               121.5313

 - Thermochemistry -
 -------------------
 Temperature   298.150 Kelvin.  Pressure   1.00000 Atm.
 Atom     1 has atomic number  6 and mass  12.00000

 Molecular mass:    70.02795 amu.
 Principal axes and moments of inertia in atomic units:
                           1         2         3
     Eigenvalues --   171.25946 174.75634 346.01579
           X            0.78984   0.61331   0.00000
           Y           -0.61331   0.78984   0.00000
           Z            0.00000   0.00000   1.00000
 This molecule is an asymmetric top.
 Rotational symmetry number  1.
 Rotational temperatures (Kelvin)      0.50575     0.49563     0.25032
 Rotational constants (GHZ):          10.53805    10.32719     5.21578
 Zero-point vibrational energy     126891.1 (Joules/Mol)
                                   30.32769 (Kcal/Mol)
 Warning -- explicit consideration of   1 degrees of freedom as
           vibrations may cause significant error
 Vibrational temperatures:    832.53  1009.69  1079.11  1264.48  1437.43
          (Kelvin)           1487.09  1589.41  1619.22  1685.45  1887.98
                             1958.66  2200.35  2255.77  4831.10  5384.69

 Zero-point correction=                           0.048330 (Hartree/Particle)
 Thermal correction to Energy=                    0.051762
 Thermal correction to Enthalpy=                  0.052706
 Thermal correction to Gibbs Free Energy=         0.022245
 Sum of electronic and zero-point Energies=           -257.524479
 Sum of electronic and thermal Energies=              -257.521047
 Sum of electronic and thermal Enthalpies=            -257.520103
 Sum of electronic and thermal Free Energies=         -257.550564

                     E (Thermal)             CV                S
                      KCal/Mol        Cal/Mol-Kelvin    Cal/Mol-Kelvin
 Total                   32.481             11.000             64.110
 Electronic               0.000              0.000              0.000
 Translational            0.889              2.981             38.656
 Rotational               0.889              2.981             23.853
 Vibrational             30.704              5.038              1.602
 Vibration     1          0.935              1.077              0.488

 Optimization completed.
    -- Stationary point found.
 Normal termination of Gaussian 09 at Wed Dec  4 10:52:11 2013.
