 Gaussian 09, Revision D.01,
 Gaussian 09:  EM64L-G09RevD.01 24-Apr-2013

 ---
 #G4
 ---
 1/14=-1,18=20,19=15,26=3,38=1/1,3;
 2/9=110,12=2,17=6,18=5,40=1/2;
 3/5=35,7=104,11=2,16=1,25=1,30=1,71=1,74=-5/1,2,3;
 4//1;
 5/5=2,38=5/2;

 ------------------------------------------------------------------
 1H-tetrazole CH2N4 casno=288948 state=1 config=1 method=74 basis=0
 ------------------------------------------------------------------
 Symbolic Z-matrix:
 Charge =  0 Multiplicity = 1

 SCF Done:  E(RB3LYP) =  -258.263978641     A.U. after   14 cycles
 SCF Done:  E(RB3LYP) =  -258.267584254     A.U. after   12 cycles
 SCF Done:  E(RB3LYP) =  -258.267652412     A.U. after    9 cycles
 SCF Done:  E(RB3LYP) =  -258.267662355     A.U. after    9 cycles
 SCF Done:  E(RB3LYP) =  -258.267667648     A.U. after    8 cycles
 SCF Done:  E(RB3LYP) =  -258.267668288     A.U. after    7 cycles
 Optimization completed.
    -- Stationary point found.
 Normal termination of Gaussian 09 at Wed Dec  4 20:20:06 2013.

 ----------------------------------------------------------
 #N Geom=AllCheck Guess=TCheck SCRF=Check B3LYP/GTBas3 Freq
 ----------------------------------------------------------

 Structure from the checkpoint file:  "/tmp/rdj3/g09-31766/Gau-5156.chk"
 ------------------------------------------------------------------
 1H-tetrazole CH2N4 casno=288948 state=1 config=1 method=74 basis=0
 ------------------------------------------------------------------
 Charge =  0 Multiplicity = 1

 SCF Done:  E(RB3LYP) =  -258.267668288     A.U. after    1 cycles

  Exact polarizability:  38.901   0.978  38.235   0.000   0.000  18.284
 Approx polarizability:  68.470   0.438  72.304   0.000   0.000  29.498

                      1                      2                      3
                     A"                     A"                     A"
 Frequencies --    581.8433               693.0859               742.7896
 Red. masses --      1.6661                 2.0763                 8.6599
 Frc consts  --      0.3323                 0.5877                 2.8151
 IR Inten    --     77.7367                 6.1995                 7.5465

                      4                      5                      6
                     A"                     A'                     A'
 Frequencies --    866.6366               972.7490              1013.7868
 Red. masses --      1.3668                 4.9033                 6.1217
 Frc consts  --      0.6048                 2.7336                 3.7069
 IR Inten    --     13.1494                 4.3677                 0.4296

                      7                      8                      9
                     A'                     A'                     A'
 Frequencies --   1048.8114              1070.0778              1150.4540
 Red. masses --      5.2010                 3.3425                 1.9780
 Frc consts  --      3.3708                 2.2550                 1.5425
 IR Inten    --     15.4192                28.6127                15.6762

                     10                     11                     12
                     A'                     A'                     A'
 Frequencies --   1267.6710              1299.9721              1456.9487
 Red. masses --      2.2969                10.9368                 3.1165
 Frc consts  --      2.1747                10.8895                 3.8976
 IR Inten    --      2.9415                13.4349                 8.6376

                     13                     14                     15
                     A'                     A'                     A'
 Frequencies --   1509.1065              3289.4078              3662.5644
 Red. masses --      3.3232                 1.1002                 1.0834
 Frc consts  --      4.4591                 7.0139                 8.5624
 IR Inten    --     17.1395                 0.9831                86.6468

 - Thermochemistry -
 -------------------
 Temperature   298.150 Kelvin.  Pressure   1.00000 Atm.
 Atom     1 has atomic number  6 and mass  12.00000

 Molecular mass:    70.02795 amu.
 Principal axes and moments of inertia in atomic units:
                           1         2         3
     Eigenvalues --   171.28013 174.17637 345.45649
           X            0.87325   0.48728   0.00000
           Y           -0.48728   0.87325   0.00000
           Z            0.00000   0.00000   1.00000
 This molecule is an asymmetric top.
 Rotational symmetry number  1.
 Rotational temperatures (Kelvin)      0.50569     0.49728     0.25072
 Rotational constants (GHZ):          10.53678    10.36157     5.22422
 Zero-point vibrational energy     123370.3 (Joules/Mol)
                                   29.48621 (Kcal/Mol)
 Warning -- explicit consideration of   1 degrees of freedom as
           vibrations may cause significant error
 Vibrational temperatures:    837.14   997.19  1068.71  1246.90  1399.57
          (Kelvin)           1458.61  1509.00  1539.60  1655.24  1823.89
                             1870.37  2096.22  2171.26  4732.72  5269.61

 Zero-point correction=                           0.046989 (Hartree/Particle)
 Thermal correction to Energy=                    0.050455
 Thermal correction to Enthalpy=                  0.051399
 Thermal correction to Gibbs Free Energy=         0.020898
 Sum of electronic and zero-point Energies=           -258.220679
 Sum of electronic and thermal Energies=              -258.217214
 Sum of electronic and thermal Enthalpies=            -258.216269
 Sum of electronic and thermal Free Energies=         -258.246770

                     E (Thermal)             CV                S
                      KCal/Mol        Cal/Mol-Kelvin    Cal/Mol-Kelvin
 Total                   31.661             11.287             64.194
 Electronic               0.000              0.000              0.000
 Translational            0.889              2.981             38.656
 Rotational               0.889              2.981             23.848
 Vibrational             29.883              5.325              1.690
 Vibration     1          0.939              1.071              0.482

 Optimization completed.
    -- Stationary point found.
 Normal termination of Gaussian 09 at Wed Dec  4 20:20:48 2013.

 -----------------------------------------------------------------
 #N Geom=AllCheck Guess=TCheck SCRF=Check CCSD(T,E4T,FrzG4)/GTBas1
 -----------------------------------------------------------------

 Structure from the checkpoint file:  "/tmp/rdj3/g09-31766/Gau-5156.chk"
 ------------------------------------------------------------------
 1H-tetrazole CH2N4 casno=288948 state=1 config=1 method=74 basis=0
 ------------------------------------------------------------------
 Charge =  0 Multiplicity = 1

 SCF Done:  E(RHF) =  -256.749851377     A.U. after   15 cycles
 E2 =    -0.7848451740D+00 EUMP2 =    -0.25753469655139D+03
 CCSD(T)= -0.25757659532D+03
 DTQ=-257.5833829\MP4SDQ=-257.5425429\CCSD=-257.5413529\CCSD(T)=-257.57
 Normal termination of Gaussian 09 at Wed Dec  4 20:21:20 2013.

 ---------------------------------------------------------
 #N Geom=AllCheck Guess=TCheck SCRF=Check MP4=FrzG4/GTBas2
 ---------------------------------------------------------

 Structure from the checkpoint file:  "/tmp/rdj3/g09-31766/Gau-5156.chk"
 ------------------------------------------------------------------
 1H-tetrazole CH2N4 casno=288948 state=1 config=1 method=74 basis=0
 ------------------------------------------------------------------
 Charge =  0 Multiplicity = 1

 SCF Done:  E(RHF) =  -256.757515731     A.U. after   13 cycles
 E2 =    -0.7938673742D+00 EUMP2 =    -0.25755138310537D+03
 Normal termination of Gaussian 09 at Wed Dec  4 20:21:38 2013.

 ---------------------------------------------------------
 #N Geom=AllCheck Guess=TCheck SCRF=Check MP4=FrzG4/GTBas3
 ---------------------------------------------------------

 Structure from the checkpoint file:  "/tmp/rdj3/g09-31766/Gau-5156.chk"
 ------------------------------------------------------------------
 1H-tetrazole CH2N4 casno=288948 state=1 config=1 method=74 basis=0
 ------------------------------------------------------------------
 Charge =  0 Multiplicity = 1

 SCF Done:  E(RHF) =  -256.777106558     A.U. after   12 cycles
 E2 =    -0.9165836690D+00 EUMP2 =    -0.25769369022711D+03
 Normal termination of Gaussian 09 at Wed Dec  4 20:23:25 2013.

 -----------------------------------------------------------
 #N Geom=AllCheck Guess=TCheck SCRF=Check MP2=Full/GTLargeXP
 -----------------------------------------------------------

 Structure from the checkpoint file:  "/tmp/rdj3/g09-31766/Gau-5156.chk"
 ------------------------------------------------------------------
 1H-tetrazole CH2N4 casno=288948 state=1 config=1 method=74 basis=0
 ------------------------------------------------------------------
 Charge =  0 Multiplicity = 1

 SCF Done:  E(RHF) =  -256.841597711     A.U. after   14 cycles
 E2 =    -0.1190684871D+01 EUMP2 =    -0.25803228258237D+03
 Normal termination of Gaussian 09 at Wed Dec  4 20:24:52 2013.
 SCF Done:  E(RHF) =  -256.861671476     A.U. after   10 cycles
 Normal termination of Gaussian 09 at Wed Dec  4 20:28:02 2013.

                         Standard orientation:
 ---------------------------------------------------------------------
 Center     Atomic      Atomic             Coordinates (Angstroms)
 Number     Number       Type             X           Y           Z
 ---------------------------------------------------------------------
      1          6           0        1.066195    0.235651    0.000000
      2          7           0        0.000000    1.053968    0.000000
      3          7           0       -1.119921    0.300654    0.000000
      4          7           0       -0.722494   -0.925624    0.000000
      5          7           0        0.638649   -1.005974    0.000000
      6          1           0        2.091981    0.565406    0.000000
      7          1           0       -0.062796    2.059521    0.000000
 ---------------------------------------------------------------------

 SCF Done:  E(RHF) =  -256.865477492     A.U. after    8 cycles

 The electronic state is 1-A'.
 Alpha  occ. eigenvalues --  -15.68124 -15.66407 -15.64831 -15.60411 -11.33863
 Alpha  occ. eigenvalues --   -1.49288  -1.25525  -1.19551  -0.90833  -0.88947
 Alpha  occ. eigenvalues --   -0.80014  -0.67799  -0.67766  -0.57150  -0.48102
 Alpha  occ. eigenvalues --   -0.47517  -0.45729  -0.42073
 Alpha virt. eigenvalues --    0.02249   0.04143   0.04993   0.05962   0.08405
 Alpha virt. eigenvalues --    0.08844   0.10606   0.10715   0.11794   0.12044
 Alpha virt. eigenvalues --    0.12963   0.13468   0.14648   0.14893   0.15926

 Mulliken charges:
               1
     1  C    0.114580
     2  N   -0.246140
     3  N   -0.106202
     4  N   -0.098392
     5  N   -0.299878
     6  H    0.246895
     7  H    0.389136
 Sum of Mulliken charges =   0.00000

 Dipole moment (field-independent basis, Debye):
    X=              2.6408    Y=              4.8952    Z=              0.0000  Tot=              5.5621
 Quadrupole moment (field-independent basis, Debye-Ang):
   XX=            -28.9225   YY=            -26.7029   ZZ=            -29.0427
   XY=              2.1079   XZ=              0.0000   YZ=              0.0000

 Normal termination of Gaussian 09 at Wed Dec  4 20:50:47 2013.
