 Gaussian 09, Revision D.01,
 Gaussian 09:  EM64L-G09RevD.01 24-Apr-2013

 ------------------------------------
 #TPSSh/aug-cc-pVTZ opt=z-matrix freq
 ------------------------------------
 -------------------------------------------------------------------
 1H-tetrazole CH2N4 casno=288948 state=1 config=1 method=75 basis=18
 -------------------------------------------------------------------
 Symbolic Z-matrix:
 Charge =  0 Multiplicity = 1

 SCF Done:  E(RTPSSh) =  -258.360125682     A.U. after   12 cycles
 SCF Done:  E(RTPSSh) =  -258.363465939     A.U. after   11 cycles
 SCF Done:  E(RTPSSh) =  -258.363523933     A.U. after    9 cycles
 SCF Done:  E(RTPSSh) =  -258.363552228     A.U. after    9 cycles
 SCF Done:  E(RTPSSh) =  -258.363563286     A.U. after    8 cycles
 SCF Done:  E(RTPSSh) =  -258.363112506     A.U. after   10 cycles
 SCF Done:  E(RTPSSh) =  -258.363566740     A.U. after    8 cycles
 SCF Done:  E(RTPSSh) =  -258.363562444     A.U. after    8 cycles
 SCF Done:  E(RTPSSh) =  -258.363567633     A.U. after    6 cycles
 SCF Done:  E(RTPSSh) =  -258.363567127     A.U. after    8 cycles
 SCF Done:  E(RTPSSh) =  -258.363567999     A.U. after    6 cycles
 SCF Done:  E(RTPSSh) =  -258.363568342     A.U. after    5 cycles
 SCF Done:  E(RTPSSh) =  -258.363568475     A.U. after    4 cycles
 SCF Done:  E(RTPSSh) =  -258.363568584     A.U. after    6 cycles
 SCF Done:  E(RTPSSh) =  -258.363568679     A.U. after    7 cycles
 SCF Done:  E(RTPSSh) =  -258.363568436     A.U. after    7 cycles
 SCF Done:  E(RTPSSh) =  -258.363568581     A.U. after    4 cycles
 SCF Done:  E(RTPSSh) =  -258.363568325     A.U. after    7 cycles
 SCF Done:  E(RTPSSh) =  -258.363568562     A.U. after    5 cycles
 Optimization completed.
    -- Stationary point found.
 Normal termination of Gaussian 09 at Wed Dec  4 21:30:36 2013.

 ----------------------------------------------------------------------
 #T Geom=AllCheck Guess=TCheck SCRF=Check GenChk RTPSSh/Aug-CC-pVTZ Fre
 q
 ----------------------------------------------------------------------
 Structure from the checkpoint file:  "/tmp/rdj3/g09-31766/Gau-7923.chk"
 -------------------------------------------------------------------
 1H-tetrazole CH2N4 casno=288948 state=1 config=1 method=75 basis=18
 -------------------------------------------------------------------
 Charge =  0 Multiplicity = 1

                         Standard orientation:
 ---------------------------------------------------------------------
 Center     Atomic      Atomic             Coordinates (Angstroms)
 Number     Number       Type             X           Y           Z
 ---------------------------------------------------------------------
      1          6           0        1.065792    0.235797    0.000000
      2          7           0        0.000000    1.052793    0.000000
      3          7           0       -1.119793    0.301065    0.000000
      4          7           0       -0.722046   -0.924934    0.000000
      5          7           0        0.638148   -1.005640    0.000000
      6          1           0        2.091490    0.562995    0.000000
      7          1           0       -0.060413    2.059238    0.000000
 ---------------------------------------------------------------------

 SCF Done:  E(RTPSSh) =  -258.363568562     A.U. after    1 cycles

 The electronic state is 1-A'.
 Alpha  occ. eigenvalues --  -14.36770 -14.33384 -14.31738 -14.28821 -10.20871
 Alpha  occ. eigenvalues --   -1.12458  -0.93148  -0.87876  -0.66741  -0.65198
 Alpha  occ. eigenvalues --   -0.58465  -0.48811  -0.48784  -0.37100  -0.32662
 Alpha  occ. eigenvalues --   -0.30570  -0.29651  -0.28413
 Alpha virt. eigenvalues --   -0.04624  -0.02655  -0.01420   0.00568   0.03110
 Alpha virt. eigenvalues --    0.03459   0.05243   0.06008   0.06854   0.07666
 Alpha virt. eigenvalues --    0.08564   0.08945   0.10308   0.11824   0.12725

 Mulliken charges:
               1
     1  C    0.006352
     2  N    0.289200
     3  N   -0.335283
     4  N   -0.130874
     5  N   -0.298414
     6  H    0.378389
     7  H    0.090630
 Sum of Mulliken charges =   0.00000

 Dipole moment (field-independent basis, Debye):
    X=              2.4681    Y=              4.6887    Z=              0.0000  Tot=              5.2986
  Exact polarizability:  46.204   0.550  45.725   0.000   0.000  26.379
 Approx polarizability:  80.888   0.262  84.990   0.000   0.000  40.489
 Calling FoFJK, ICntrl=    100127 FMM=F ISym2X=1 I1Cent= 0 IOpClX= 0 NMat=1 NMatS=1 NMatT=0.
 Full mass-weighted force constant matrix:
 Low frequencies ---  -12.2226   -9.3517   -0.0017   -0.0016   -0.0012    8.1434
 Low frequencies ---  593.9550  690.3837  737.2651
 Diagonal vibrational polarizability:
        1.1329427       1.0602986       7.2960558
 Harmonic frequencies (cm**-1), IR intensities (KM/Mole), Raman scattering
 activities (A**4/AMU), depolarization ratios for plane and unpolarized

                      1                      2                      3
                     A"                     A"                     A"
 Frequencies --    593.9549               690.3837               737.2650
 Red. masses --      1.8021                 1.9506                 7.8154
 Frc consts  --      0.3746                 0.5478                 2.5029
 IR Inten    --     74.7428                 8.6957                 8.4884

                      4                      5                      6
                     A"                     A'                     A'
 Frequencies --    863.2239               954.1300              1000.0320
 Red. masses --      1.3637                 5.2672                 5.6968
 Frc consts  --      0.5987                 2.8252                 3.3567
 IR Inten    --     18.9187                 4.4687                 0.7030

                      7                      8                      9
                     A'                     A'                     A'
 Frequencies --   1026.8993              1050.4561              1141.2502
 Red. masses --      5.9627                 3.4572                 1.9429
 Frc consts  --      3.7047                 2.2477                 1.4910
 IR Inten    --     13.2790                27.3026                16.1252

                     10                     11                     12
                     A'                     A'                     A'
 Frequencies --   1253.7517              1272.0980              1448.5384
 Red. masses --      2.3067                10.5288                 3.0496
 Frc consts  --      2.1363                10.0385                 3.7701
 IR Inten    --      4.7616                 8.9438                 9.1157

                     13                     14                     15
                     A'                     A'                     A'
 Frequencies --   1496.1799              3273.9117              3625.8601
 Red. masses --      3.1258                 1.1006                 1.0836
 Frc consts  --      4.1227                 6.9502                 8.3935
 IR Inten    --     15.9829                 1.0344                79.3392

 Normal termination of Gaussian 09 at Wed Dec  4 21:38:19 2013.
