 Gaussian 09, Revision D.01,
 Gaussian 09:  EM64L-G09RevD.01 24-Apr-2013

 --------------------------------
 #TPSSh/6-31G** opt=z-matrix freq
 --------------------------------
 ------------------------------------------------------------------
 1H-tetrazole CH2N4 casno=288948 state=1 config=1 method=75 basis=3
 ------------------------------------------------------------------
 Symbolic Z-matrix:
 Charge =  0 Multiplicity = 1

 SCF Done:  E(RTPSSh) =  -258.266369513     A.U. after   15 cycles
 SCF Done:  E(RTPSSh) =  -258.271363296     A.U. after   13 cycles
 SCF Done:  E(RTPSSh) =  -258.271461013     A.U. after   11 cycles
 SCF Done:  E(RTPSSh) =  -258.271185432     A.U. after   13 cycles
 SCF Done:  E(RTPSSh) =  -258.271469872     A.U. after   10 cycles
 SCF Done:  E(RTPSSh) =  -258.271397146     A.U. after   11 cycles
 SCF Done:  E(RTPSSh) =  -258.271470176     A.U. after   10 cycles
 SCF Done:  E(RTPSSh) =  -258.271477852     A.U. after    9 cycles
 SCF Done:  E(RTPSSh) =  -258.271474993     A.U. after    9 cycles
 SCF Done:  E(RTPSSh) =  -258.271477707     A.U. after    8 cycles
 SCF Done:  E(RTPSSh) =  -258.271475120     A.U. after   10 cycles
 SCF Done:  E(RTPSSh) =  -258.271478058     A.U. after    8 cycles
 SCF Done:  E(RTPSSh) =  -258.271478381     A.U. after    6 cycles
 SCF Done:  E(RTPSSh) =  -258.271478511     A.U. after    5 cycles
 SCF Done:  E(RTPSSh) =  -258.271475294     A.U. after    9 cycles
 SCF Done:  E(RTPSSh) =  -258.264083898     A.U. after   15 cycles
 SCF Done:  E(RTPSSh) =  -258.271480498     A.U. after    8 cycles
 SCF Done:  E(RTPSSh) =  -258.271481518     A.U. after    8 cycles
 SCF Done:  E(RTPSSh) =  -258.271481668     A.U. after    7 cycles
 Optimization completed.
    -- Stationary point found.
 Normal termination of Gaussian 09 at Wed Dec  4 21:42:06 2013.

 ----------------------------------------------------------------------
 #T Geom=AllCheck Guess=TCheck SCRF=Check GenChk RTPSSh/6-31G(d,p) Freq
 ----------------------------------------------------------------------
 Structure from the checkpoint file:  "/tmp/rdj3/g09-31766/Gau-15122.chk"
 ------------------------------------------------------------------
 1H-tetrazole CH2N4 casno=288948 state=1 config=1 method=75 basis=3
 ------------------------------------------------------------------
 Charge =  0 Multiplicity = 1

                         Standard orientation:
 ---------------------------------------------------------------------
 Center     Atomic      Atomic             Coordinates (Angstroms)
 Number     Number       Type             X           Y           Z
 ---------------------------------------------------------------------
      1          6           0        1.069807    0.236638    0.000000
      2          7           0        0.000000    1.056461    0.000000
      3          7           0       -1.125402    0.303029    0.000000
      4          7           0       -0.723174   -0.928336    0.000000
      5          7           0        0.640707   -1.009849    0.000000
      6          1           0        2.096799    0.565695    0.000000
      7          1           0       -0.060560    2.065339    0.000000
 ---------------------------------------------------------------------

 SCF Done:  E(RTPSSh) =  -258.271481668     A.U. after    1 cycles

 The electronic state is 1-A'.
 Alpha  occ. eigenvalues --  -14.38055 -14.34326 -14.32536 -14.29747 -10.21662
 Alpha  occ. eigenvalues --   -1.11542  -0.92407  -0.87096  -0.66098  -0.64370
 Alpha  occ. eigenvalues --   -0.57723  -0.48145  -0.47706  -0.36105  -0.31719
 Alpha  occ. eigenvalues --   -0.29664  -0.28713  -0.27368
 Alpha virt. eigenvalues --   -0.03613   0.00051   0.05434   0.10380   0.16771
 Alpha virt. eigenvalues --    0.19084   0.26583   0.31394   0.39431   0.50563
 Alpha virt. eigenvalues --    0.52164   0.58741   0.60188   0.63082   0.66045

 Mulliken charges:
               1
     1  C    0.312279
     2  N   -0.364331
     3  N   -0.049350
     4  N   -0.082461
     5  N   -0.317784
     6  H    0.184667
     7  H    0.316980
 Sum of Mulliken charges =   0.00000

 Dipole moment (field-independent basis, Debye):
    X=              2.4851    Y=              4.7360    Z=              0.0000  Tot=              5.3484
  Exact polarizability:  38.325   1.003  37.842   0.000   0.000  15.798
 Approx polarizability:  72.101   0.087  76.615   0.000   0.000  25.211
 Calling FoFJK, ICntrl=    100127 FMM=F ISym2X=1 I1Cent= 0 IOpClX= 0 NMat=1 NMatS=1 NMatT=0.
 Full mass-weighted force constant matrix:
 Low frequencies ---  -12.2067   -6.3325    0.0007    0.0007    0.0011   13.6379
 Low frequencies ---  583.9047  688.3963  731.9251
 Diagonal vibrational polarizability:
        1.1875648       1.0858414       8.5042501
 Harmonic frequencies (cm**-1), IR intensities (KM/Mole), Raman scattering
 activities (A**4/AMU), depolarization ratios for plane and unpolarized

                      1                      2                      3
                     A"                     A"                     A"
 Frequencies --    583.9045               688.3963               731.9250
 Red. masses --      1.8884                 1.9380                 7.5099
 Frc consts  --      0.3793                 0.5411                 2.3704
 IR Inten    --     83.6632                11.7742                 9.6227

                      4                      5                      6
                     A"                     A'                     A'
 Frequencies --    849.3990               959.7889               998.7892
 Red. masses --      1.3326                 4.9393                 5.7127
 Frc consts  --      0.5665                 2.6808                 3.3577
 IR Inten    --     20.0693                 3.4686                 0.9003

                      7                      8                      9
                     A'                     A'                     A'
 Frequencies --   1042.0283              1060.0886              1148.9183
 Red. masses --      4.9632                 4.1442                 1.8499
 Frc consts  --      3.1752                 2.7440                 1.4388
 IR Inten    --     17.1022                26.8643                15.3592

                     10                     11                     12
                     A'                     A'                     A'
 Frequencies --   1263.2975              1282.1883              1461.7867
 Red. masses --      2.3117                11.3082                 3.1182
 Frc consts  --      2.1737                10.9534                 3.9258
 IR Inten    --      3.6415                14.2015                 9.3616

                     13                     14                     15
                     A'                     A'                     A'
 Frequencies --   1506.7155              3306.3620              3649.0649
 Red. masses --      3.2196                 1.1000                 1.0837
 Frc consts  --      4.3065                 7.0852                 8.5017
 IR Inten    --     16.7823                 0.5536                76.8935

 Normal termination of Gaussian 09 at Wed Dec  4 21:42:17 2013.
