 Gaussian 09, Revision D.01,
 Gaussian 09:  EM64L-G09RevD.01 24-Apr-2013

 ------------------------
 #TPSSh/6-31+G** opt freq
 ------------------------
 ------------------------------------------------------------------
 1H-tetrazole CH2N4 casno=288948 state=1 config=1 method=75 basis=4
 ------------------------------------------------------------------
 Symbolic Z-matrix:
 Charge =  0 Multiplicity = 1

 SCF Done:  E(RTPSSh) =  -258.276329630     A.U. after   12 cycles
 SCF Done:  E(RTPSSh) =  -258.281283805     A.U. after   12 cycles
 SCF Done:  E(RTPSSh) =  -258.281380858     A.U. after   10 cycles
 SCF Done:  E(RTPSSh) =  -258.281394228     A.U. after   10 cycles
 SCF Done:  E(RTPSSh) =  -258.281401248     A.U. after    9 cycles
 SCF Done:  E(RTPSSh) =  -258.281402353     A.U. after    9 cycles
 Optimization completed.
    -- Stationary point found.
 Normal termination of Gaussian 09 at Tue Dec 17 05:36:50 2013.

 ----------------------------------------------------------------------
 #T Geom=AllCheck Guess=TCheck SCRF=Check GenChk RTPSSh/6-31+G(d,p) Fre
 q
 ----------------------------------------------------------------------
 Structure from the checkpoint file:  "/tmp/rdj3/g09-28781/Gau-15458.chk"
 ------------------------------------------------------------------
 1H-tetrazole CH2N4 casno=288948 state=1 config=1 method=75 basis=4
 ------------------------------------------------------------------
 Charge =  0 Multiplicity = 1

                         Standard orientation:
 ---------------------------------------------------------------------
 Center     Atomic      Atomic             Coordinates (Angstroms)
 Number     Number       Type             X           Y           Z
 ---------------------------------------------------------------------
      1          6           0        1.070520    0.237270    0.000000
      2          7           0        0.000000    1.056678    0.000000
      3          7           0       -1.124429    0.302494    0.000000
      4          7           0       -0.723342   -0.928947    0.000000
      5          7           0        0.639277   -1.009290    0.000000
      6          1           0        2.098352    0.563768    0.000000
      7          1           0       -0.062013    2.066077    0.000000
 ---------------------------------------------------------------------

 SCF Done:  E(RTPSSh) =  -258.281402353     A.U. after    1 cycles

 The electronic state is 1-A'.
 Alpha  occ. eigenvalues --  -14.39036 -14.35490 -14.33743 -14.30990 -10.22550
 Alpha  occ. eigenvalues --   -1.12728  -0.93503  -0.88177  -0.67085  -0.65398
 Alpha  occ. eigenvalues --   -0.58648  -0.49097  -0.48712  -0.37200  -0.32785
 Alpha  occ. eigenvalues --   -0.30683  -0.29860  -0.28529
 Alpha virt. eigenvalues --   -0.04893  -0.01522  -0.01475   0.02190   0.04290
 Alpha virt. eigenvalues --    0.05208   0.07257   0.08754   0.10816   0.12852
 Alpha virt. eigenvalues --    0.14261   0.14319   0.16635   0.17675   0.17807

 Mulliken charges:
               1
     1  C   -0.006847
     2  N   -0.296120
     3  N    0.003809
     4  N   -0.011379
     5  N   -0.235672
     6  H    0.197308
     7  H    0.348901
 Sum of Mulliken charges =   0.00000

 Dipole moment (field-independent basis, Debye):
    X=              2.6075    Y=              4.8752    Z=              0.0000  Tot=              5.5287
  Exact polarizability:  44.381   0.404  43.997   0.000   0.000  23.930
 Approx polarizability:  77.414  -0.276  81.999   0.000   0.000  35.661
 Calling FoFJK, ICntrl=    100127 FMM=F ISym2X=1 I1Cent= 0 IOpClX= 0 NMat=1 NMatS=1 NMatT=0.
 Full mass-weighted force constant matrix:
 Low frequencies ---  -15.4973   -8.2989   -0.0012   -0.0011   -0.0010   16.0075
 Low frequencies ---  578.6452  684.5418  726.7651
 Diagonal vibrational polarizability:
        1.2011950       1.1376137       8.6569427
 Harmonic frequencies (cm**-1), IR intensities (KM/Mole), Raman scattering
 activities (A**4/AMU), depolarization ratios for plane and unpolarized

                      1                      2                      3
                     A"                     A"                     A"
 Frequencies --    578.6451               684.5417               726.7650
 Red. masses --      1.9442                 1.8808                 7.8317
 Frc consts  --      0.3835                 0.5193                 2.4372
 IR Inten    --     80.7098                13.3479                 8.9870

                      4                      5                      6
                     A"                     A'                     A'
 Frequencies --    846.7208               958.4188               998.8093
 Red. masses --      1.3240                 4.9684                 6.1545
 Frc consts  --      0.5593                 2.6889                 3.6175
 IR Inten    --     25.1923                 3.4997                 0.8861

                      7                      8                      9
                     A'                     A'                     A'
 Frequencies --   1041.4926              1059.8981              1145.2916
 Red. masses --      4.7311                 4.3064                 1.8265
 Frc consts  --      3.0236                 2.8503                 1.4115
 IR Inten    --     16.5311                28.4399                15.4675

                     10                     11                     12
                     A'                     A'                     A'
 Frequencies --   1262.1852              1280.8831              1457.4338
 Red. masses --      2.3045                11.2830                 3.1253
 Frc consts  --      2.1631                10.9067                 3.9113
 IR Inten    --      3.3501                14.9452                 9.8104

                     13                     14                     15
                     A'                     A'                     A'
 Frequencies --   1503.7885              3308.3457              3645.9045
 Red. masses --      3.1627                 1.1003                 1.0839
 Frc consts  --      4.2139                 7.0958                 8.4892
 IR Inten    --     16.9500                 1.3923                85.1858

 Optimization completed.
    -- Stationary point found.
 Normal termination of Gaussian 09 at Tue Dec 17 05:37:04 2013.
