 Gaussian 09, Revision D.01,
 Gaussian 09:  EM64L-G09RevD.01 24-Apr-2013

 ------------------------------------
 #TPSSh/aug-cc-pVDZ opt=z-matrix freq
 ------------------------------------
 -------------------------------------------------------------------
 1H-tetrazole CH2N4 casno=288948 state=1 config=1 method=75 basis=17
 -------------------------------------------------------------------
 Symbolic Z-matrix:
 Charge =  0 Multiplicity = 1

 SCF Done:  E(RTPSSh) =  -258.307280021     A.U. after   12 cycles
 SCF Done:  E(RTPSSh) =  -258.312647043     A.U. after   11 cycles
 SCF Done:  E(RTPSSh) =  -258.312727890     A.U. after   10 cycles
 SCF Done:  E(RTPSSh) =  -258.312758336     A.U. after   10 cycles
 SCF Done:  E(RTPSSh) =  -258.310912800     A.U. after   11 cycles
 SCF Done:  E(RTPSSh) =  -258.312774676     A.U. after    9 cycles
 SCF Done:  E(RTPSSh) =  -258.312779451     A.U. after    8 cycles
 SCF Done:  E(RTPSSh) =  -258.311814731     A.U. after   11 cycles
 SCF Done:  E(RTPSSh) =  -258.312781277     A.U. after    8 cycles
 SCF Done:  E(RTPSSh) =  -258.312781906     A.U. after    8 cycles
 SCF Done:  E(RTPSSh) =  -258.312781325     A.U. after    8 cycles
 SCF Done:  E(RTPSSh) =  -258.312781935     A.U. after    4 cycles
 SCF Done:  E(RTPSSh) =  -258.312782075     A.U. after    7 cycles
 SCF Done:  E(RTPSSh) =  -258.312719074     A.U. after   10 cycles
 SCF Done:  E(RTPSSh) =  -258.312781659     A.U. after    8 cycles
 SCF Done:  E(RTPSSh) =  -258.312782110     A.U. after    4 cycles
 SCF Done:  E(RTPSSh) =  -258.312782102     A.U. after    6 cycles
 Optimization completed.
    -- Stationary point found.
 Normal termination of Gaussian 09 at Wed Dec  4 20:52:36 2013.

 ----------------------------------------------------------------------
 #T Geom=AllCheck Guess=TCheck SCRF=Check GenChk RTPSSh/Aug-CC-pVDZ Fre
 q
 ----------------------------------------------------------------------
 Structure from the checkpoint file:  "/tmp/rdj3/g09-31766/Gau-6412.chk"
 -------------------------------------------------------------------
 1H-tetrazole CH2N4 casno=288948 state=1 config=1 method=75 basis=17
 -------------------------------------------------------------------
 Charge =  0 Multiplicity = 1

                         Standard orientation:
 ---------------------------------------------------------------------
 Center     Atomic      Atomic             Coordinates (Angstroms)
 Number     Number       Type             X           Y           Z
 ---------------------------------------------------------------------
      1          6           0        1.070543    0.236571    0.000000
      2          7           0        0.000000    1.056883    0.000000
      3          7           0       -1.124276    0.305008    0.000000
      4          7           0       -0.724232   -0.928986    0.000000
      5          7           0        0.639082   -1.011885    0.000000
      6          1           0        2.102266    0.565548    0.000000
      7          1           0       -0.059540    2.067883    0.000000
 ---------------------------------------------------------------------

 SCF Done:  E(RTPSSh) =  -258.312782102     A.U. after    2 cycles

 The electronic state is 1-A'.
 Alpha  occ. eigenvalues --  -14.38100 -14.34690 -14.33073 -14.30325 -10.22127
 Alpha  occ. eigenvalues --   -1.12324  -0.93225  -0.87838  -0.66770  -0.65155
 Alpha  occ. eigenvalues --   -0.58293  -0.48736  -0.48453  -0.37039  -0.32539
 Alpha  occ. eigenvalues --   -0.30395  -0.29761  -0.28479
 Alpha virt. eigenvalues --   -0.04781  -0.02660  -0.01569   0.00643   0.03639
 Alpha virt. eigenvalues --    0.04400   0.05813   0.07010   0.08494   0.09071
 Alpha virt. eigenvalues --    0.10377   0.11138   0.12482   0.13318   0.14601

 Mulliken charges:
               1
     1  C    0.855942
     2  N   -0.014949
     3  N   -0.104577
     4  N   -0.262138
     5  N   -0.292329
     6  H   -0.149531
     7  H   -0.032419
 Sum of Mulliken charges =   0.00000

 Dipole moment (field-independent basis, Debye):
    X=              2.5047    Y=              4.7119    Z=              0.0000  Tot=              5.3362
  Exact polarizability:  46.582   0.534  46.083   0.000   0.000  26.448
 Approx polarizability:  81.934   0.174  85.980   0.000   0.000  40.446
 Calling FoFJK, ICntrl=    100127 FMM=F ISym2X=1 I1Cent= 0 IOpClX= 0 NMat=1 NMatS=1 NMatT=0.
 Full mass-weighted force constant matrix:
 Low frequencies ---  -11.2980   -8.3223   -0.0011   -0.0004    0.0011    8.5425
 Low frequencies ---  591.0888  686.6336  731.1255
 Diagonal vibrational polarizability:
        1.1050165       1.0284283       7.3981716
 Harmonic frequencies (cm**-1), IR intensities (KM/Mole), Raman scattering
 activities (A**4/AMU), depolarization ratios for plane and unpolarized

                      1                      2                      3
                     A"                     A"                     A"
 Frequencies --    591.0887               686.6335               731.1254
 Red. masses --      1.8760                 1.8803                 7.9364
 Frc consts  --      0.3862                 0.5223                 2.4995
 IR Inten    --     72.8363                10.2275                 8.2522

                      4                      5                      6
                     A"                     A'                     A'
 Frequencies --    849.9896               956.6192               997.6147
 Red. masses --      1.3554                 4.5630                 6.0429
 Frc consts  --      0.5770                 2.4603                 3.5434
 IR Inten    --     21.1762                 2.9819                 0.5990

                      7                      8                      9
                     A'                     A'                     A'
 Frequencies --   1044.0588              1055.8911              1137.3289
 Red. masses --      4.4456                 3.9242                 1.9102
 Frc consts  --      2.8551                 2.5777                 1.4558
 IR Inten    --     16.2960                27.1235                14.3377

                     10                     11                     12
                     A'                     A'                     A'
 Frequencies --   1252.9983              1274.6752              1452.2821
 Red. masses --      2.4065                11.3049                 3.2699
 Frc consts  --      2.2260                10.8222                 4.0633
 IR Inten    --      2.8522                10.4517                 8.7359

                     13                     14                     15
                     A'                     A'                     A'
 Frequencies --   1494.5726              3285.9400              3617.0996
 Red. masses --      3.1601                 1.1010                 1.0842
 Frc consts  --      4.1589                 7.0042                 8.3576
 IR Inten    --     15.3080                 0.7959                75.0584

 Normal termination of Gaussian 09 at Wed Dec  4 20:53:12 2013.
