 Gaussian 09, Revision D.01,
 Gaussian 09:  EM64L-G09RevD.01 24-Apr-2013

 ----------------------
 #TPSSh/3-21G* opt freq
 ----------------------
 ------------------------------------------------------------------
 1H-tetrazole CH2N4 casno=288948 state=1 config=1 method=75 basis=8
 ------------------------------------------------------------------
 Symbolic Z-matrix:
 Charge =  0 Multiplicity = 1

 SCF Done:  E(RTPSSh) =  -256.781955004     A.U. after   15 cycles
 SCF Done:  E(RTPSSh) =  -256.805281267     A.U. after   15 cycles
 SCF Done:  E(RTPSSh) =  -256.807227389     A.U. after   14 cycles
 SCF Done:  E(RTPSSh) =  -256.807529927     A.U. after   13 cycles
 SCF Done:  E(RTPSSh) =  -256.807661141     A.U. after   10 cycles
 SCF Done:  E(RTPSSh) =  -256.807677897     A.U. after    9 cycles
 SCF Done:  E(RTPSSh) =  -256.807683377     A.U. after   10 cycles
 SCF Done:  E(RTPSSh) =  -256.807686934     A.U. after    9 cycles
 SCF Done:  E(RTPSSh) =  -256.807688224     A.U. after    9 cycles
 Optimization completed.
    -- Stationary point found.
 Normal termination of Gaussian 09 at Tue Dec 17 05:37:49 2013.

 ------------------------------------------------------------------
 #T Geom=AllCheck Guess=TCheck SCRF=Check GenChk RTPSSh/3-21G* Freq
 ------------------------------------------------------------------
 Structure from the checkpoint file:  "/tmp/rdj3/g09-28781/Gau-16702.chk"
 ------------------------------------------------------------------
 1H-tetrazole CH2N4 casno=288948 state=1 config=1 method=75 basis=8
 ------------------------------------------------------------------
 Charge =  0 Multiplicity = 1

                         Standard orientation:
 ---------------------------------------------------------------------
 Center     Atomic      Atomic             Coordinates (Angstroms)
 Number     Number       Type             X           Y           Z
 ---------------------------------------------------------------------
      1          6           0        1.082354    0.263149    0.000000
      2          7           0        0.000000    1.089480    0.000000
      3          7           0       -1.180170    0.290498    0.000000
      4          7           0       -0.745615   -0.974894    0.000000
      5          7           0        0.707813   -1.017874    0.000000
      6          1           0        2.100469    0.607854    0.000000
      7          1           0       -0.068792    2.102781    0.000000
 ---------------------------------------------------------------------

 SCF Done:  E(RTPSSh) =  -256.807688224     A.U. after    1 cycles

 The electronic state is 1-A'.
 Alpha  occ. eigenvalues --  -14.30771 -14.28242 -14.26390 -14.23278 -10.17382
 Alpha  occ. eigenvalues --   -1.11070  -0.92090  -0.88956  -0.65804  -0.64731
 Alpha  occ. eigenvalues --   -0.58363  -0.47811  -0.46618  -0.35241  -0.31281
 Alpha  occ. eigenvalues --   -0.30079  -0.28802  -0.27519
 Alpha virt. eigenvalues --   -0.05101  -0.01019   0.06771   0.08137   0.15039
 Alpha virt. eigenvalues --    0.17618   0.22931   0.33256   0.36265   0.66058
 Alpha virt. eigenvalues --    0.68870   0.80434   0.82676   0.91859   1.00518

 Mulliken charges:
               1
     1  C    0.315385
     2  N   -0.536365
     3  N   -0.032143
     4  N   -0.078471
     5  N   -0.335441
     6  H    0.289569
     7  H    0.377466
 Sum of Mulliken charges =   0.00000

 Dipole moment (field-independent basis, Debye):
    X=              2.4480    Y=              4.8757    Z=              0.0000  Tot=              5.4558
  Exact polarizability:  35.888   1.259  35.507   0.000   0.000  11.336
 Approx polarizability:  74.350  -1.143  83.049   0.000   0.000  15.533
 Calling FoFJK, ICntrl=    100127 FMM=F ISym2X=1 I1Cent= 0 IOpClX= 0 NMat=1 NMatS=1 NMatT=0.
 Full mass-weighted force constant matrix:
 Low frequencies ---  -25.5643  -10.0314   -6.1786   -0.0009   -0.0002    0.0007
 Low frequencies ---  616.3941  670.4198  673.4059
 Diagonal vibrational polarizability:
        1.4717625       1.2159864      11.0596479
 Harmonic frequencies (cm**-1), IR intensities (KM/Mole), Raman scattering
 activities (A**4/AMU), depolarization ratios for plane and unpolarized

                      1                      2                      3
                     A"                     A"                     A"
 Frequencies --    616.3939               670.4197               673.4053
 Red. masses --      3.2361                 3.3073                 1.7011
 Frc consts  --      0.7244                 0.8758                 0.4545
 IR Inten    --     77.0595                 6.3576                76.4374

                      4                      5                      6
                     A'                     A'                     A"
 Frequencies --    755.3412               834.5125               904.5405
 Red. masses --     10.4195                 6.3626                 1.3566
 Frc consts  --      3.5025                 2.6107                 0.6540
 IR Inten    --      9.6832                14.5743                20.8185

                      7                      8                      9
                     A'                     A'                     A'
 Frequencies --    957.6960               990.3808              1047.8236
 Red. masses --      4.6385                 7.0632                 8.7660
 Frc consts  --      2.5066                 4.0818                 5.6706
 IR Inten    --      8.2448                 7.1388                 1.3376

                     10                     11                     12
                     A'                     A'                     A'
 Frequencies --   1130.8083              1194.6411              1348.4745
 Red. masses --      2.0788                 2.2549                 2.5858
 Frc consts  --      1.5661                 1.8961                 2.7704
 IR Inten    --     13.0766                 7.7038                 4.5369

                     13                     14                     15
                     A'                     A'                     A'
 Frequencies --   1416.7864              3317.2583              3570.4312
 Red. masses --      2.0798                 1.0987                 1.0846
 Frc consts  --      2.4597                 7.1237                 8.1463
 IR Inten    --     38.6250                 1.3664                89.2808

 Optimization completed.
    -- Stationary point found.
 Normal termination of Gaussian 09 at Tue Dec 17 05:37:54 2013.
