 Gaussian 09, Revision D.01,
 Gaussian 09:  EM64L-G09RevD.01 24-Apr-2013

 -----------------------
 #TPSSh/6-311G* opt freq
 -----------------------
 ------------------------------------------------------------------
 1H-tetrazole CH2N4 casno=288948 state=1 config=1 method=75 basis=7
 ------------------------------------------------------------------
 Symbolic Z-matrix:
 Charge =  0 Multiplicity = 1

 SCF Done:  E(RTPSSh) =  -258.321912505     A.U. after   15 cycles
 SCF Done:  E(RTPSSh) =  -258.325948957     A.U. after   13 cycles
 SCF Done:  E(RTPSSh) =  -258.326037856     A.U. after    9 cycles
 SCF Done:  E(RTPSSh) =  -258.326044192     A.U. after    9 cycles
 SCF Done:  E(RTPSSh) =  -258.326045816     A.U. after    8 cycles
 Optimization completed.
    -- Stationary point found.
 Normal termination of Gaussian 09 at Tue Dec 17 05:37:20 2013.

 ---------------------------------------------------------------------
 #T Geom=AllCheck Guess=TCheck SCRF=Check GenChk RTPSSh/6-311G(d) Freq
 ---------------------------------------------------------------------
 Structure from the checkpoint file:  "/tmp/rdj3/g09-28781/Gau-16118.chk"
 ------------------------------------------------------------------
 1H-tetrazole CH2N4 casno=288948 state=1 config=1 method=75 basis=7
 ------------------------------------------------------------------
 Charge =  0 Multiplicity = 1

                         Standard orientation:
 ---------------------------------------------------------------------
 Center     Atomic      Atomic             Coordinates (Angstroms)
 Number     Number       Type             X           Y           Z
 ---------------------------------------------------------------------
      1          6           0        1.067804    0.234662    0.000000
      2          7           0        0.000000    1.055526    0.000000
      3          7           0       -1.122660    0.301672    0.000000
      4          7           0       -0.723430   -0.925512    0.000000
      5          7           0        0.640636   -1.007828    0.000000
      6          1           0        2.094449    0.562609    0.000000
      7          1           0       -0.063092    2.062409    0.000000
 ---------------------------------------------------------------------

 SCF Done:  E(RTPSSh) =  -258.326045816     A.U. after    1 cycles

 The electronic state is 1-A'.
 Alpha  occ. eigenvalues --  -14.35983 -14.32358 -14.30553 -14.27785 -10.20387
 Alpha  occ. eigenvalues --   -1.12236  -0.92906  -0.87683  -0.66600  -0.64881
 Alpha  occ. eigenvalues --   -0.58322  -0.48633  -0.48228  -0.36568  -0.32130
 Alpha  occ. eigenvalues --   -0.30173  -0.29082  -0.27816
 Alpha virt. eigenvalues --   -0.03953  -0.00389   0.01829   0.06221   0.15037
 Alpha virt. eigenvalues --    0.17545   0.21408   0.25883   0.31107   0.38141
 Alpha virt. eigenvalues --    0.38655   0.42700   0.48698   0.53179   0.55506

 Mulliken charges:
               1
     1  C    0.164989
     2  N   -0.430277
     3  N   -0.015722
     4  N   -0.089152
     5  N   -0.250331
     6  H    0.248966
     7  H    0.371526
 Sum of Mulliken charges =   0.00000

 Dipole moment (field-independent basis, Debye):
    X=              2.4898    Y=              4.7842    Z=              0.0000  Tot=              5.3933
  Exact polarizability:  39.360   0.960  38.847   0.000   0.000  17.537
 Approx polarizability:  72.417   0.233  76.907   0.000   0.000  27.263
 Calling FoFJK, ICntrl=    100127 FMM=F ISym2X=1 I1Cent= 0 IOpClX= 0 NMat=1 NMatS=1 NMatT=0.
 Full mass-weighted force constant matrix:
 Low frequencies ---   -3.6953   -0.0005    0.0004    0.0005    2.5978   15.9459
 Low frequencies ---  594.2546  694.5993  734.5420
 Diagonal vibrational polarizability:
        1.1713166       1.1272954       8.5318002
 Harmonic frequencies (cm**-1), IR intensities (KM/Mole), Raman scattering
 activities (A**4/AMU), depolarization ratios for plane and unpolarized

                      1                      2                      3
                     A"                     A"                     A"
 Frequencies --    594.2545               694.5992               734.5419
 Red. masses --      2.0427                 1.8199                 6.9590
 Frc consts  --      0.4250                 0.5173                 2.2122
 IR Inten    --     82.9125                15.0343                10.7328

                      4                      5                      6
                     A"                     A'                     A'
 Frequencies --    846.8038               953.9945              1003.6085
 Red. masses --      1.3400                 5.3272                 5.9835
 Frc consts  --      0.5661                 2.8566                 3.5509
 IR Inten    --     22.3687                 5.0565                 0.5613

                      7                      8                      9
                     A'                     A'                     A'
 Frequencies --   1030.2330              1056.5260              1145.1038
 Red. masses --      5.7216                 3.6598                 1.9247
 Frc consts  --      3.5780                 2.4070                 1.4870
 IR Inten    --     15.0826                27.4972                17.2165

                     10                     11                     12
                     A'                     A'                     A'
 Frequencies --   1261.9770              1278.9114              1460.0586
 Red. masses --      2.3336                10.9938                 3.1862
 Frc consts  --      2.1897                10.5945                 4.0019
 IR Inten    --      2.8514                14.6915                 9.0158

                     13                     14                     15
                     A'                     A'                     A'
 Frequencies --   1512.1728              3286.4862              3647.3941
 Red. masses --      2.7971                 1.1004                 1.0835
 Frc consts  --      3.7684                 7.0029                 8.4923
 IR Inten    --     17.6405                 0.1824                61.1222

 Optimization completed.
    -- Stationary point found.
 Normal termination of Gaussian 09 at Tue Dec 17 05:37:32 2013.
