 Gaussian 09, Revision D.01,
 Gaussian 09:  EM64L-G09RevD.01 24-Apr-2013

 --------------------------------
 #TPSSh/cc-pVTZ opt=z-matrix freq
 --------------------------------
 ------------------------------------------------------------------
 1H-tetrazole CH2N4 casno=288948 state=1 config=1 method=75 basis=6
 ------------------------------------------------------------------
 Symbolic Z-matrix:
 Charge =  0 Multiplicity = 1

 SCF Done:  E(RTPSSh) =  -258.355495670     A.U. after   15 cycles
 SCF Done:  E(RTPSSh) =  -258.358861412     A.U. after   12 cycles
 SCF Done:  E(RTPSSh) =  -258.358916127     A.U. after   11 cycles
 SCF Done:  E(RTPSSh) =  -258.358942287     A.U. after   10 cycles
 SCF Done:  E(RTPSSh) =  -258.358955244     A.U. after    8 cycles
 SCF Done:  E(RTPSSh) =  -258.358168264     A.U. after   11 cycles
 SCF Done:  E(RTPSSh) =  -258.358956686     A.U. after    8 cycles
 SCF Done:  E(RTPSSh) =  -258.358958345     A.U. after    8 cycles
 SCF Done:  E(RTPSSh) =  -258.358085205     A.U. after   11 cycles
 SCF Done:  E(RTPSSh) =  -258.358958668     A.U. after    8 cycles
 SCF Done:  E(RTPSSh) =  -258.358958465     A.U. after    8 cycles
 SCF Done:  E(RTPSSh) =  -258.358958906     A.U. after    6 cycles
 SCF Done:  E(RTPSSh) =  -258.358958458     A.U. after    8 cycles
 SCF Done:  E(RTPSSh) =  -258.358958794     A.U. after    6 cycles
 SCF Done:  E(RTPSSh) =  -258.358959218     A.U. after    7 cycles
 SCF Done:  E(RTPSSh) =  -258.358959226     A.U. after    6 cycles
 SCF Done:  E(RTPSSh) =  -258.358959229     A.U. after    6 cycles
 SCF Done:  E(RTPSSh) =  -258.358959234     A.U. after    5 cycles
 SCF Done:  E(RTPSSh) =  -258.358959229     A.U. after    6 cycles
 Optimization completed.
    -- Stationary point found.
 Normal termination of Gaussian 09 at Wed Dec  4 21:49:58 2013.

 -------------------------------------------------------------------
 #T Geom=AllCheck Guess=TCheck SCRF=Check GenChk RTPSSh/CC-pVTZ Freq
 -------------------------------------------------------------------
 Structure from the checkpoint file:  "/tmp/rdj3/g09-31766/Gau-20425.chk"
 ------------------------------------------------------------------
 1H-tetrazole CH2N4 casno=288948 state=1 config=1 method=75 basis=6
 ------------------------------------------------------------------
 Charge =  0 Multiplicity = 1

                         Standard orientation:
 ---------------------------------------------------------------------
 Center     Atomic      Atomic             Coordinates (Angstroms)
 Number     Number       Type             X           Y           Z
 ---------------------------------------------------------------------
      1          6           0        1.065741    0.235333    0.000000
      2          7           0        0.000000    1.053241    0.000000
      3          7           0       -1.119953    0.301021    0.000000
      4          7           0       -0.722413   -0.924525    0.000000
      5          7           0        0.638679   -1.006099    0.000000
      6          1           0        2.091303    0.562929    0.000000
      7          1           0       -0.059943    2.059607    0.000000
 ---------------------------------------------------------------------

 SCF Done:  E(RTPSSh) =  -258.358959229     A.U. after    1 cycles

 The electronic state is 1-A'.
 Alpha  occ. eigenvalues --  -14.36364 -14.32875 -14.31183 -14.28326 -10.20513
 Alpha  occ. eigenvalues --   -1.12010  -0.92716  -0.87459  -0.66339  -0.64778
 Alpha  occ. eigenvalues --   -0.58095  -0.48427  -0.48378  -0.36641  -0.32225
 Alpha  occ. eigenvalues --   -0.30174  -0.29147  -0.27927
 Alpha virt. eigenvalues --   -0.04036  -0.00607   0.01412   0.05901   0.14000
 Alpha virt. eigenvalues --    0.15276   0.16919   0.23274   0.27446   0.27718
 Alpha virt. eigenvalues --    0.35065   0.36075   0.38628   0.41129   0.42131

 Mulliken charges:
               1
     1  C    0.017635
     2  N    0.000539
     3  N   -0.083236
     4  N   -0.074859
     5  N   -0.160805
     6  H    0.122573
     7  H    0.178153
 Sum of Mulliken charges =   0.00000

 Dipole moment (field-independent basis, Debye):
    X=              2.4164    Y=              4.6606    Z=              0.0000  Tot=              5.2498
  Exact polarizability:  41.948   0.850  41.311   0.000   0.000  20.840
 Approx polarizability:  76.348   0.430  80.349   0.000   0.000  33.476
 Calling FoFJK, ICntrl=    100127 FMM=F ISym2X=1 I1Cent= 0 IOpClX= 0 NMat=1 NMatS=1 NMatT=0.
 Full mass-weighted force constant matrix:
 Low frequencies ---   -7.8240   -7.4135   -0.0009    0.0010    0.0011   13.5169
 Low frequencies ---  586.9772  690.7662  738.1521
 Diagonal vibrational polarizability:
        1.1384401       1.0851227       7.3478163
 Harmonic frequencies (cm**-1), IR intensities (KM/Mole), Raman scattering
 activities (A**4/AMU), depolarization ratios for plane and unpolarized

                      1                      2                      3
                     A"                     A"                     A"
 Frequencies --    586.9772               690.7661               738.1520
 Red. masses --      1.7777                 1.9876                 7.7647
 Frc consts  --      0.3609                 0.5588                 2.4927
 IR Inten    --     73.8822                 7.5552                 8.8571

                      4                      5                      6
                     A"                     A'                     A'
 Frequencies --    862.1457               954.4616               999.6610
 Red. masses --      1.3616                 5.3023                 5.3650
 Frc consts  --      0.5963                 2.8460                 3.1588
 IR Inten    --     19.7078                 4.6121                 1.1170

                      7                      8                      9
                     A'                     A'                     A'
 Frequencies --   1027.0589              1050.5982              1142.4133
 Red. masses --      6.1896                 3.4225                 1.9642
 Frc consts  --      3.8468                 2.2257                 1.5103
 IR Inten    --     13.5276                27.3161                17.0070

                     10                     11                     12
                     A'                     A'                     A'
 Frequencies --   1254.6097              1275.3436              1449.1437
 Red. masses --      2.2804                11.0056                 3.0340
 Frc consts  --      2.1148                10.5468                 3.7540
 IR Inten    --      4.3028                10.3012                 8.5450

                     13                     14                     15
                     A'                     A'                     A'
 Frequencies --   1498.2393              3273.0692              3628.9545
 Red. masses --      3.1608                 1.1004                 1.0835
 Frc consts  --      4.1804                 6.9457                 8.4073
 IR Inten    --     15.4787                 0.6696                75.6944

 Normal termination of Gaussian 09 at Wed Dec  4 21:51:21 2013.
