 Gaussian 09, Revision D.01,
 Gaussian 09:  EM64L-G09RevD.01 24-Apr-2013

 ---------------------
 #TPSSh/6-31G opt freq
 ---------------------
 ------------------------------------------------------------------
 1H-tetrazole CH2N4 casno=288948 state=1 config=1 method=75 basis=9
 ------------------------------------------------------------------
 Symbolic Z-matrix:
 Charge =  0 Multiplicity = 1

 SCF Done:  E(RTPSSh) =  -258.135697658     A.U. after   16 cycles
 SCF Done:  E(RTPSSh) =  -258.151283808     A.U. after   14 cycles
 SCF Done:  E(RTPSSh) =  -258.151902816     A.U. after   13 cycles
 SCF Done:  E(RTPSSh) =  -258.152117360     A.U. after   12 cycles
 SCF Done:  E(RTPSSh) =  -258.152153238     A.U. after   10 cycles
 SCF Done:  E(RTPSSh) =  -258.152157901     A.U. after    9 cycles
 SCF Done:  E(RTPSSh) =  -258.152159097     A.U. after    8 cycles
 Optimization completed.
    -- Stationary point found.
 Normal termination of Gaussian 09 at Tue Dec 17 05:38:08 2013.

 -----------------------------------------------------------------
 #T Geom=AllCheck Guess=TCheck SCRF=Check GenChk RTPSSh/6-31G Freq
 -----------------------------------------------------------------
 Structure from the checkpoint file:  "/tmp/rdj3/g09-28781/Gau-17593.chk"
 ------------------------------------------------------------------
 1H-tetrazole CH2N4 casno=288948 state=1 config=1 method=75 basis=9
 ------------------------------------------------------------------
 Charge =  0 Multiplicity = 1

                         Standard orientation:
 ---------------------------------------------------------------------
 Center     Atomic      Atomic             Coordinates (Angstroms)
 Number     Number       Type             X           Y           Z
 ---------------------------------------------------------------------
      1          6           0        1.085467    0.255552    0.000000
      2          7           0        0.000000    1.075070    0.000000
      3          7           0       -1.156686    0.297684    0.000000
      4          7           0       -0.738876   -0.956392    0.000000
      5          7           0        0.673576   -1.016150    0.000000
      6          1           0        2.107577    0.584204    0.000000
      7          1           0       -0.066474    2.080999    0.000000
 ---------------------------------------------------------------------

 SCF Done:  E(RTPSSh) =  -258.152159097     A.U. after    1 cycles

 The electronic state is 1-A'.
 Alpha  occ. eigenvalues --  -14.38721 -14.36395 -14.34465 -14.31753 -10.23388
 Alpha  occ. eigenvalues --   -1.13642  -0.93929  -0.89901  -0.67345  -0.65779
 Alpha  occ. eigenvalues --   -0.59106  -0.49243  -0.48206  -0.36045  -0.32634
 Alpha  occ. eigenvalues --   -0.31067  -0.29307  -0.28184
 Alpha virt. eigenvalues --   -0.05938  -0.02148   0.04714   0.08333   0.13635
 Alpha virt. eigenvalues --    0.16697   0.21916   0.28976   0.35215   0.51557
 Alpha virt. eigenvalues --    0.52951   0.60232   0.64300   0.65226   0.66386

 Mulliken charges:
               1
     1  C    0.301062
     2  N   -0.559040
     3  N    0.015925
     4  N   -0.092291
     5  N   -0.295160
     6  H    0.243978
     7  H    0.385526
 Sum of Mulliken charges =   0.00000

 Dipole moment (field-independent basis, Debye):
    X=              2.6994    Y=              5.0976    Z=              0.0000  Tot=              5.7683
  Exact polarizability:  38.639   1.049  38.206   0.000   0.000  13.968
 Approx polarizability:  75.032  -0.565  81.382   0.000   0.000  19.042
 Calling FoFJK, ICntrl=    100127 FMM=F ISym2X=1 I1Cent= 0 IOpClX= 0 NMat=1 NMatS=1 NMatT=0.
 Full mass-weighted force constant matrix:
 Low frequencies ---  -25.3343  -16.7228  -11.7972   -0.0014   -0.0013   -0.0010
 Low frequencies ---  655.6865  700.8082  722.7102
 Diagonal vibrational polarizability:
        1.3312906       1.2400567       9.5886087
 Harmonic frequencies (cm**-1), IR intensities (KM/Mole), Raman scattering
 activities (A**4/AMU), depolarization ratios for plane and unpolarized

                      1                      2                      3
                     A"                     A"                     A"
 Frequencies --    655.6864               700.8081               722.7102
 Red. masses --      4.6827                10.5572                 1.1251
 Frc consts  --      1.1861                 3.0549                 0.3462
 IR Inten    --     19.8468                 0.1177               147.8357

                      4                      5                      6
                     A'                     A"                     A'
 Frequencies --    815.9840               874.6117               901.4609
 Red. masses --      9.4386                 1.3573                 6.1679
 Frc consts  --      3.7027                 0.6117                 2.9531
 IR Inten    --      8.9178                20.5467                17.5188

                      7                      8                      9
                     A'                     A'                     A'
 Frequencies --    988.6416              1016.6492              1129.2828
 Red. masses --      6.2074                 5.3480                 3.0867
 Frc consts  --      3.5747                 3.2567                 2.3192
 IR Inten    --      4.8422                10.5695                11.0875

                     10                     11                     12
                     A'                     A'                     A'
 Frequencies --   1167.4809              1227.9463              1402.6765
 Red. masses --      2.8129                 2.6170                 2.8444
 Frc consts  --      2.2589                 2.3249                 3.2973
 IR Inten    --     13.6578                 2.5735                 3.9901

                     13                     14                     15
                     A'                     A'                     A'
 Frequencies --   1470.6773              3361.3224              3686.0353
 Red. masses --      2.0498                 1.1014                 1.0844
 Frc consts  --      2.6122                 7.3318                 8.6811
 IR Inten    --     35.3139                 3.2731                86.2946

 Optimization completed.
    -- Stationary point found.
 Normal termination of Gaussian 09 at Tue Dec 17 05:38:13 2013.
