 Gaussian 09, Revision D.01,
 Gaussian 09:  EM64L-G09RevD.01 24-Apr-2013

 --------------------------------
 #TPSSh/cc-PVDZ opt=z-matrix freq
 --------------------------------
 ------------------------------------------------------------------
 1H-tetrazole CH2N4 casno=288948 state=1 config=1 method=75 basis=5
 ------------------------------------------------------------------
 Symbolic Z-matrix:
 Charge =  0 Multiplicity = 1

 SCF Done:  E(RTPSSh) =  -258.288136821     A.U. after   15 cycles
 SCF Done:  E(RTPSSh) =  -258.293402582     A.U. after   12 cycles
 SCF Done:  E(RTPSSh) =  -258.293489320     A.U. after   11 cycles
 SCF Done:  E(RTPSSh) =  -258.293328727     A.U. after   11 cycles
 SCF Done:  E(RTPSSh) =  -258.293498902     A.U. after   10 cycles
 SCF Done:  E(RTPSSh) =  -258.293348525     A.U. after   12 cycles
 SCF Done:  E(RTPSSh) =  -258.293498663     A.U. after   10 cycles
 SCF Done:  E(RTPSSh) =  -258.293499215     A.U. after    5 cycles
 SCF Done:  E(RTPSSh) =  -258.293513586     A.U. after    9 cycles
 SCF Done:  E(RTPSSh) =  -258.293418395     A.U. after   11 cycles
 SCF Done:  E(RTPSSh) =  -258.293517724     A.U. after    8 cycles
 SCF Done:  E(RTPSSh) =  -258.293519222     A.U. after    8 cycles
 SCF Done:  E(RTPSSh) =  -258.293518209     A.U. after    9 cycles
 SCF Done:  E(RTPSSh) =  -258.293519150     A.U. after    4 cycles
 SCF Done:  E(RTPSSh) =  -258.293519400     A.U. after    7 cycles
 SCF Done:  E(RTPSSh) =  -258.293519413     A.U. after   10 cycles
 SCF Done:  E(RTPSSh) =  -258.293518691     A.U. after    8 cycles
 SCF Done:  E(RTPSSh) =  -258.293519447     A.U. after    4 cycles
 SCF Done:  E(RTPSSh) =  -258.293519538     A.U. after    8 cycles
 Optimization completed.
    -- Stationary point found.
 Normal termination of Gaussian 09 at Wed Dec  4 21:44:34 2013.

 -------------------------------------------------------------------
 #T Geom=AllCheck Guess=TCheck SCRF=Check GenChk RTPSSh/CC-pVDZ Freq
 -------------------------------------------------------------------
 Structure from the checkpoint file:  "/tmp/rdj3/g09-31766/Gau-18608.chk"
 ------------------------------------------------------------------
 1H-tetrazole CH2N4 casno=288948 state=1 config=1 method=75 basis=5
 ------------------------------------------------------------------
 Charge =  0 Multiplicity = 1

                         Standard orientation:
 ---------------------------------------------------------------------
 Center     Atomic      Atomic             Coordinates (Angstroms)
 Number     Number       Type             X           Y           Z
 ---------------------------------------------------------------------
      1          6           0        1.069793    0.233899    0.000000
      2          7           0        0.000000    1.057228    0.000000
      3          7           0       -1.123509    0.305256    0.000000
      4          7           0       -0.724583   -0.926443    0.000000
      5          7           0        0.638693   -1.013111    0.000000
      6          1           0        2.103785    0.564817    0.000000
      7          1           0       -0.056750    2.071275    0.000000
 ---------------------------------------------------------------------

 SCF Done:  E(RTPSSh) =  -258.293519538     A.U. after    1 cycles

 The electronic state is 1-A'.
 Alpha  occ. eigenvalues --  -14.37159 -14.33275 -14.31491 -14.28931 -10.21395
 Alpha  occ. eigenvalues --   -1.11476  -0.92289  -0.86938  -0.65809  -0.64211
 Alpha  occ. eigenvalues --   -0.57396  -0.47837  -0.47586  -0.35873  -0.31557
 Alpha  occ. eigenvalues --   -0.29500  -0.28479  -0.27169
 Alpha virt. eigenvalues --   -0.03439   0.00131   0.03323   0.07741   0.16377
 Alpha virt. eigenvalues --    0.18559   0.25497   0.27819   0.36728   0.42338
 Alpha virt. eigenvalues --    0.45838   0.53313   0.55639   0.57212   0.65274

 Mulliken charges:
               1
     1  C    0.226179
     2  N   -0.057209
     3  N   -0.073504
     4  N   -0.089702
     5  N   -0.201810
     6  H    0.066291
     7  H    0.129756
 Sum of Mulliken charges =   0.00000

 Dipole moment (field-independent basis, Debye):
    X=              2.3915    Y=              4.6310    Z=              0.0000  Tot=              5.2121
  Exact polarizability:  38.490   1.115  37.675   0.000   0.000  16.168
 Approx polarizability:  72.570   0.405  76.612   0.000   0.000  25.760
 Calling FoFJK, ICntrl=    100127 FMM=F ISym2X=1 I1Cent= 0 IOpClX= 0 NMat=1 NMatS=1 NMatT=0.
 Full mass-weighted force constant matrix:
 Low frequencies ---   -7.3875    0.0003    0.0003    0.0008    4.6100   11.2629
 Low frequencies ---  579.3299  687.9231  734.4811
 Diagonal vibrational polarizability:
        1.1222282       1.1259633       7.3912419
 Harmonic frequencies (cm**-1), IR intensities (KM/Mole), Raman scattering
 activities (A**4/AMU), depolarization ratios for plane and unpolarized

                      1                      2                      3
                     A"                     A"                     A"
 Frequencies --    579.3299               687.9231               734.4811
 Red. masses --      1.8323                 1.9861                 7.2884
 Frc consts  --      0.3623                 0.5538                 2.3166
 IR Inten    --     71.5172                 8.2924                 9.1722

                      4                      5                      6
                     A"                     A'                     A'
 Frequencies --    849.6076               956.7078               997.6749
 Red. masses --      1.3483                 4.3625                 5.3547
 Frc consts  --      0.5734                 2.3526                 3.1403
 IR Inten    --     19.5183                 3.2058                 1.0643

                      7                      8                      9
                     A'                     A'                     A'
 Frequencies --   1041.4296              1054.1463              1137.3932
 Red. masses --      4.2810                 3.7900                 1.9927
 Frc consts  --      2.7356                 2.4814                 1.5189
 IR Inten    --     20.1167                24.2413                16.2741

                     10                     11                     12
                     A'                     A'                     A'
 Frequencies --   1250.7969              1282.2643              1452.9101
 Red. masses --      2.3813                10.9866                 3.1712
 Frc consts  --      2.1950                10.6431                 3.9442
 IR Inten    --      2.7631                13.3094                 8.4616

                     13                     14                     15
                     A'                     A'                     A'
 Frequencies --   1497.4616              3288.9340              3604.9332
 Red. masses --      3.6691                 1.1008                 1.0846
 Frc consts  --      4.8476                 7.0156                 8.3042
 IR Inten    --     13.5295                 0.8988                78.5027

 Normal termination of Gaussian 09 at Wed Dec  4 21:44:46 2013.
