 Gaussian 09, Revision D.01,
 Gaussian 09:  EM64L-G09RevD.01 24-Apr-2013

 ----------------------
 #TPSSh/6-31G* opt freq
 ----------------------
 ------------------------------------------------------------------
 1H-tetrazole CH2N4 casno=288948 state=1 config=1 method=75 basis=1
 ------------------------------------------------------------------
 Symbolic Z-matrix:
 Charge =  0 Multiplicity = 1

 SCF Done:  E(RTPSSh) =  -258.261606730     A.U. after   15 cycles
 SCF Done:  E(RTPSSh) =  -258.266688534     A.U. after   13 cycles
 SCF Done:  E(RTPSSh) =  -258.266790869     A.U. after   10 cycles
 SCF Done:  E(RTPSSh) =  -258.266799585     A.U. after    9 cycles
 SCF Done:  E(RTPSSh) =  -258.266802022     A.U. after    9 cycles
 SCF Done:  E(RTPSSh) =  -258.266802672     A.U. after    8 cycles
 Optimization completed.
    -- Stationary point found.
 Normal termination of Gaussian 09 at Tue Dec 17 05:35:23 2013.

 --------------------------------------------------------------------
 #T Geom=AllCheck Guess=TCheck SCRF=Check GenChk RTPSSh/6-31G(d) Freq
 --------------------------------------------------------------------
 Structure from the checkpoint file:  "/tmp/rdj3/g09-28781/Gau-13321.chk"
 ------------------------------------------------------------------
 1H-tetrazole CH2N4 casno=288948 state=1 config=1 method=75 basis=1
 ------------------------------------------------------------------
 Charge =  0 Multiplicity = 1

                         Standard orientation:
 ---------------------------------------------------------------------
 Center     Atomic      Atomic             Coordinates (Angstroms)
 Number     Number       Type             X           Y           Z
 ---------------------------------------------------------------------
      1          6           0        1.069920    0.236837    0.000000
      2          7           0        0.000000    1.056174    0.000000
      3          7           0       -1.125449    0.303058    0.000000
      4          7           0       -0.723221   -0.928717    0.000000
      5          7           0        0.641078   -1.009622    0.000000
      6          1           0        2.097232    0.566453    0.000000
      7          1           0       -0.063603    2.066269    0.000000
 ---------------------------------------------------------------------

 SCF Done:  E(RTPSSh) =  -258.266802672     A.U. after    1 cycles

 The electronic state is 1-A'.
 Alpha  occ. eigenvalues --  -14.38089 -14.34321 -14.32532 -14.29736 -10.21674
 Alpha  occ. eigenvalues --   -1.11557  -0.92431  -0.87104  -0.66183  -0.64393
 Alpha  occ. eigenvalues --   -0.57826  -0.48230  -0.47698  -0.36122  -0.31694
 Alpha  occ. eigenvalues --   -0.29655  -0.28716  -0.27372
 Alpha virt. eigenvalues --   -0.03554   0.00093   0.05325   0.10360   0.16824
 Alpha virt. eigenvalues --    0.19180   0.26654   0.31390   0.39494   0.51071
 Alpha virt. eigenvalues --    0.52143   0.58825   0.60175   0.63651   0.66174

 Mulliken charges:
               1
     1  C    0.262046
     2  N   -0.431864
     3  N   -0.040136
     4  N   -0.082043
     5  N   -0.310187
     6  H    0.222596
     7  H    0.379588
 Sum of Mulliken charges =   0.00000

 Dipole moment (field-independent basis, Debye):
    X=              2.4848    Y=              4.7427    Z=              0.0000  Tot=              5.3542
  Exact polarizability:  38.162   0.976  37.659   0.000   0.000  15.678
 Approx polarizability:  71.782   0.025  76.209   0.000   0.000  24.973
 Calling FoFJK, ICntrl=    100127 FMM=F ISym2X=1 I1Cent= 0 IOpClX= 0 NMat=1 NMatS=1 NMatT=0.
 Full mass-weighted force constant matrix:
 Low frequencies ---  -15.5533   -7.8280   -0.0007    0.0009    0.0010   15.6959
 Low frequencies ---  573.8468  688.8814  732.1640
 Diagonal vibrational polarizability:
        1.1903365       1.0651650       9.0549427
 Harmonic frequencies (cm**-1), IR intensities (KM/Mole), Raman scattering
 activities (A**4/AMU), depolarization ratios for plane and unpolarized

                      1                      2                      3
                     A"                     A"                     A"
 Frequencies --    573.8465               688.8814               732.1640
 Red. masses --      1.8539                 1.9768                 7.6764
 Frc consts  --      0.3597                 0.5527                 2.4245
 IR Inten    --     87.9497                10.9972                 9.1127

                      4                      5                      6
                     A"                     A'                     A'
 Frequencies --    844.2686               959.9158              1000.7398
 Red. masses --      1.3271                 5.0240                 5.8809
 Frc consts  --      0.5573                 2.7275                 3.4700
 IR Inten    --     20.8284                 3.7082                 0.7214

                      7                      8                      9
                     A'                     A'                     A'
 Frequencies --   1043.8600              1061.6003              1151.2522
 Red. masses --      5.0787                 4.1651                 1.8203
 Frc consts  --      3.2605                 2.7657                 1.4215
 IR Inten    --     16.1527                27.8098                15.1436

                     10                     11                     12
                     A'                     A'                     A'
 Frequencies --   1265.3346              1281.2622              1464.4852
 Red. masses --      2.3277                11.3184                 3.1448
 Frc consts  --      2.1957                10.9474                 3.9739
 IR Inten    --      4.4597                13.1410                 9.2337

                     13                     14                     15
                     A'                     A'                     A'
 Frequencies --   1509.2297              3314.6736              3635.0611
 Red. masses --      3.1095                 1.1000                 1.0836
 Frc consts  --      4.1730                 7.1206                 8.4358
 IR Inten    --     17.5244                 0.3749                70.2821

 Optimization completed.
    -- Stationary point found.
 Normal termination of Gaussian 09 at Tue Dec 17 05:35:32 2013.
