 Gaussian 09, Revision D.01,
 Gaussian 09:  EM64L-G09RevD.01 24-Apr-2013

 --------------------
 #TPSSh/TZVP opt freq
 --------------------
 -------------------------------------------------------------------
 1H-tetrazole CH2N4 casno=288948 state=1 config=1 method=75 basis=32
 -------------------------------------------------------------------
 Symbolic Z-matrix:
 Charge =  0 Multiplicity = 1

 SCF Done:  E(RTPSSh) =  -258.346247317     A.U. after   15 cycles
 SCF Done:  E(RTPSSh) =  -258.350004653     A.U. after   12 cycles
 SCF Done:  E(RTPSSh) =  -258.350095876     A.U. after    9 cycles
 SCF Done:  E(RTPSSh) =  -258.350100913     A.U. after    9 cycles
 SCF Done:  E(RTPSSh) =  -258.350105522     A.U. after    8 cycles
 Optimization completed.
    -- Stationary point found.
 Normal termination of Gaussian 09 at Tue Dec 17 05:36:13 2013.

 ----------------------------------------------------------------
 #T Geom=AllCheck Guess=TCheck SCRF=Check GenChk RTPSSh/TZVP Freq
 ----------------------------------------------------------------
 Structure from the checkpoint file:  "/tmp/rdj3/g09-28781/Gau-14872.chk"
 -------------------------------------------------------------------
 1H-tetrazole CH2N4 casno=288948 state=1 config=1 method=75 basis=32
 -------------------------------------------------------------------
 Charge =  0 Multiplicity = 1

                         Standard orientation:
 ---------------------------------------------------------------------
 Center     Atomic      Atomic             Coordinates (Angstroms)
 Number     Number       Type             X           Y           Z
 ---------------------------------------------------------------------
      1          6           0        1.067251    0.235669    0.000000
      2          7           0        0.000000    1.055256    0.000000
      3          7           0       -1.122237    0.299601    0.000000
      4          7           0       -0.723340   -0.925735    0.000000
      5          7           0        0.640702   -1.006117    0.000000
      6          1           0        2.093659    0.562063    0.000000
      7          1           0       -0.063039    2.062880    0.000000
 ---------------------------------------------------------------------

 SCF Done:  E(RTPSSh) =  -258.350105522     A.U. after    1 cycles

 The electronic state is 1-A'.
 Alpha  occ. eigenvalues --  -14.36724 -14.33276 -14.31512 -14.28691 -10.20892
 Alpha  occ. eigenvalues --   -1.12793  -0.93311  -0.88191  -0.66883  -0.65343
 Alpha  occ. eigenvalues --   -0.58659  -0.48979  -0.48693  -0.37055  -0.32633
 Alpha  occ. eigenvalues --   -0.30695  -0.29560  -0.28320
 Alpha virt. eigenvalues --   -0.04603  -0.01075   0.00921   0.06278   0.11381
 Alpha virt. eigenvalues --    0.12300   0.14221   0.19868   0.21656   0.25459
 Alpha virt. eigenvalues --    0.27958   0.31164   0.33830   0.34463   0.35615

 Mulliken charges:
               1
     1  C   -0.102740
     2  N   -0.083003
     3  N   -0.072880
     4  N   -0.079416
     5  N   -0.057035
     6  H    0.133147
     7  H    0.261927
 Sum of Mulliken charges =   0.00000

 Dipole moment (field-independent basis, Debye):
    X=              2.5352    Y=              4.8409    Z=              0.0000  Tot=              5.4645
  Exact polarizability:  42.204   0.726  41.830   0.000   0.000  21.848
 Approx polarizability:  74.679   0.072  79.570   0.000   0.000  33.028
 Calling FoFJK, ICntrl=    100127 FMM=F ISym2X=1 I1Cent= 0 IOpClX= 0 NMat=1 NMatS=1 NMatT=0.
 Full mass-weighted force constant matrix:
 Low frequencies ---   -0.0005    0.0005    0.0005    6.4341   10.2591   15.8562
 Low frequencies ---  570.2268  689.5929  728.6174
 Diagonal vibrational polarizability:
        1.2371818       1.2047149       8.0028563
 Harmonic frequencies (cm**-1), IR intensities (KM/Mole), Raman scattering
 activities (A**4/AMU), depolarization ratios for plane and unpolarized

                      1                      2                      3
                     A"                     A"                     A"
 Frequencies --    570.2267               689.5928               728.6173
 Red. masses --      2.1832                 1.8190                 6.5612
 Frc consts  --      0.4183                 0.5096                 2.0523
 IR Inten    --     66.6548                15.9439                10.7430

                      4                      5                      6
                     A"                     A'                     A'
 Frequencies --    840.9982               946.1270               997.2659
 Red. masses --      1.3009                 5.9526                 5.4198
 Frc consts  --      0.5421                 3.1395                 3.1758
 IR Inten    --     27.3180                 5.7501                 2.0542

                      7                      8                      9
                     A'                     A'                     A'
 Frequencies --   1014.5235              1048.7270              1143.3630
 Red. masses --      6.5183                 3.5127                 1.9484
 Frc consts  --      3.9528                 2.2762                 1.5007
 IR Inten    --     14.6856                26.7483                17.8803

                     10                     11                     12
                     A'                     A'                     A'
 Frequencies --   1256.3371              1271.1328              1446.1210
 Red. masses --      2.2157                10.7920                 2.9730
 Frc consts  --      2.0605                10.2739                 3.6632
 IR Inten    --      6.2393                12.1560                 9.1830

                     13                     14                     15
                     A'                     A'                     A'
 Frequencies --   1499.2857              3280.6849              3630.1097
 Red. masses --      3.0370                 1.1006                 1.0837
 Frc consts  --      4.0222                 6.9790                 8.4136
 IR Inten    --     16.8281                 1.3979                85.6593

 Optimization completed.
    -- Stationary point found.
 Normal termination of Gaussian 09 at Tue Dec 17 05:36:28 2013.
