 Gaussian 09, Revision D.01,
 Gaussian 09:  EM64L-G09RevD.01 24-Apr-2013

 ---------------------------
 #B3LYP/aug-cc-pVDZ opt freq
 ---------------------------

 ------------------------------------------------------------------
 1H-tetrazole CH2N4 casno=288948 state=1 config=1 method=8 basis=17
 ------------------------------------------------------------------
 Symbolic Z-matrix:
 Charge =  0 Multiplicity = 1

 SCF Done:  E(RB3LYP) =  -258.289534050     A.U. after   12 cycles
 SCF Done:  E(RB3LYP) =  -258.294333340     A.U. after   11 cycles
 SCF Done:  E(RB3LYP) =  -258.294406727     A.U. after   11 cycles
 SCF Done:  E(RB3LYP) =  -258.294431418     A.U. after    9 cycles
 SCF Done:  E(RB3LYP) =  -258.294436305     A.U. after    9 cycles
 SCF Done:  E(RB3LYP) =  -258.294437227     A.U. after    8 cycles
 Optimization completed.
    -- Stationary point found.
 Normal termination of Gaussian 09 at Mon Dec 16 14:08:32 2013.

 ----------------------------------------------------------------------
 #N Geom=AllCheck Guess=TCheck SCRF=Check GenChk RB3LYP/Aug-CC-pVDZ Fre
 q
 ----------------------------------------------------------------------

 Structure from the checkpoint file:  "/tmp/rdj3/g09-16160/Gau-16799.chk"
 ------------------------------------------------------------------
 1H-tetrazole CH2N4 casno=288948 state=1 config=1 method=8 basis=17
 ------------------------------------------------------------------
 Charge =  0 Multiplicity = 1

                         Standard orientation:
 ---------------------------------------------------------------------
 Center     Atomic      Atomic             Coordinates (Angstroms)
 Number     Number       Type             X           Y           Z
 ---------------------------------------------------------------------
      1          6           0        1.070105    0.236054    0.000000
      2          7           0        0.000000    1.056354    0.000000
      3          7           0       -1.122242    0.302724    0.000000
      4          7           0       -0.725017   -0.927887    0.000000
      5          7           0        0.638151   -1.009088    0.000000
      6          1           0        2.102833    0.562907    0.000000
      7          1           0       -0.059711    2.066043    0.000000
 ---------------------------------------------------------------------

 SCF Done:  E(RB3LYP) =  -258.294437227     A.U. after    1 cycles

 The electronic state is 1-A'.
 Alpha  occ. eigenvalues --  -14.45384 -14.42244 -14.40631 -14.37642 -10.28879
 Alpha  occ. eigenvalues --   -1.15636  -0.96048  -0.90822  -0.69239  -0.67848
 Alpha  occ. eigenvalues --   -0.60808  -0.51117  -0.50880  -0.39436  -0.34530
 Alpha  occ. eigenvalues --   -0.32317  -0.31994  -0.30729
 Alpha virt. eigenvalues --   -0.03985  -0.03016  -0.00758   0.00258   0.03364
 Alpha virt. eigenvalues --    0.04250   0.05495   0.06826   0.08185   0.08843
 Alpha virt. eigenvalues --    0.09946   0.10824   0.12157   0.13226   0.14381

 Mulliken charges:
               1
     1  C    0.847502
     2  N    0.133592
     3  N   -0.110542
     4  N   -0.255854
     5  N   -0.225972
     6  H   -0.282176
     7  H   -0.106550
 Sum of Mulliken charges =   0.00000

 Dipole moment (field-independent basis, Debye):
    X=              2.5309    Y=              4.7447    Z=              0.0000  Tot=              5.3776
 Quadrupole moment (field-independent basis, Debye-Ang):
   XX=            -29.3828   YY=            -26.9164   ZZ=            -28.9241
   XY=              1.9013   XZ=              0.0000   YZ=              0.0000

  Exact polarizability:  46.266   0.545  45.769   0.000   0.000  26.517
 Approx polarizability:  76.100   0.420  79.839   0.000   0.000  39.446

                      1                      2                      3
                     A"                     A"                     A"
 Frequencies --    593.4248               689.0428               737.4759
 Red. masses --      1.7285                 1.9279                 8.8616
 Frc consts  --      0.3586                 0.5393                 2.8396
 IR Inten    --     80.0873                 7.7597                 7.2214

                      4                      5                      6
                     A"                     A'                     A'
 Frequencies --    854.8225               967.0989              1008.1165
 Red. masses --      1.3919                 4.5765                 6.5934
 Frc consts  --      0.5993                 2.5219                 3.9480
 IR Inten    --     18.1649                 3.9046                 0.1100

                      7                      8                      9
                     A'                     A'                     A'
 Frequencies --   1045.2680              1063.5957              1137.8946
 Red. masses --      4.5045                 3.2986                 2.0242
 Frc consts  --      2.8997                 2.1985                 1.5442
 IR Inten    --     16.2653                28.6645                14.9766

                     10                     11                     12
                     A'                     A'                     A'
 Frequencies --   1260.4900              1292.8105              1453.8454
 Red. masses --      2.3744                10.9367                 3.3273
 Frc consts  --      2.2227                10.7698                 4.1437
 IR Inten    --      2.1206                12.6756                 8.9289

                     13                     14                     15
                     A'                     A'                     A'
 Frequencies --   1502.7562              3285.6191              3640.4781
 Red. masses --      3.2061                 1.1013                 1.0843
 Frc consts  --      4.2658                 7.0049                 8.4665
 IR Inten    --     16.4274                 1.9964                91.8504

 - Thermochemistry -
 -------------------
 Temperature   298.150 Kelvin.  Pressure   1.00000 Atm.
 Atom     1 has atomic number  6 and mass  12.00000

 Molecular mass:    70.02795 amu.
 Principal axes and moments of inertia in atomic units:
                           1         2         3
     Eigenvalues --   172.25648 175.06014 347.31662
           X            0.87790   0.47884   0.00000
           Y           -0.47884   0.87790   0.00000
           Z            0.00000   0.00000   1.00000
 This molecule is an asymmetric top.
 Rotational symmetry number  1.
 Rotational temperatures (Kelvin)      0.50282     0.49477     0.24938
 Rotational constants (GHZ):          10.47706    10.30926     5.19624
 Zero-point vibrational energy     122813.1 (Joules/Mol)
                                   29.35302 (Kcal/Mol)
 Warning -- explicit consideration of   1 degrees of freedom as
           vibrations may cause significant error
 Vibrational temperatures:    853.80   991.38  1061.06  1229.90  1391.44
          (Kelvin)           1450.45  1503.91  1530.28  1637.17  1813.56
                             1860.06  2091.76  2162.13  4727.27  5237.83

 Zero-point correction=                           0.046777 (Hartree/Particle)
 Thermal correction to Energy=                    0.050247
 Thermal correction to Enthalpy=                  0.051191
 Thermal correction to Gibbs Free Energy=         0.020678
 Sum of electronic and zero-point Energies=           -258.247660
 Sum of electronic and thermal Energies=              -258.244190
 Sum of electronic and thermal Enthalpies=            -258.243246
 Sum of electronic and thermal Free Energies=         -258.273759

                     E (Thermal)             CV                S
                      KCal/Mol        Cal/Mol-Kelvin    Cal/Mol-Kelvin
 Total                   31.530             11.339             64.219
 Electronic               0.000              0.000              0.000
 Translational            0.889              2.981             38.656
 Rotational               0.889              2.981             23.864
 Vibrational             29.753              5.377              1.699
 Vibration     1          0.951              1.046              0.461

 Optimization completed.
    -- Stationary point found.
 Normal termination of Gaussian 09 at Mon Dec 16 14:09:00 2013.
