 Gaussian 09, Revision D.01,
 Gaussian 09:  EM64L-G09RevD.01 24-Apr-2013

 ---------------------------------
 #B3LYP/CEP-121G opt=z-matrix freq
 ---------------------------------

 ------------------------------------------------------------------
 1H-tetrazole CH2N4 casno=288948 state=1 config=1 method=8 basis=13
 ------------------------------------------------------------------
 Symbolic Z-matrix:
 Charge =  0 Multiplicity = 1

 SCF Done:  E(RB3LYP) =  -46.2824951545     A.U. after   15 cycles
 SCF Done:  E(RB3LYP) =  -46.3055894748     A.U. after   16 cycles
 SCF Done:  E(RB3LYP) =  -46.3062916797     A.U. after   15 cycles
 SCF Done:  E(RB3LYP) =  -46.3047938061     A.U. after   14 cycles
 SCF Done:  E(RB3LYP) =  -46.3066070941     A.U. after   11 cycles
 SCF Done:  E(RB3LYP) =  -46.3066527459     A.U. after   13 cycles
 SCF Done:  E(RB3LYP) =  -46.3066695219     A.U. after   10 cycles
 SCF Done:  E(RB3LYP) =  -46.3065810661     A.U. after   13 cycles
 SCF Done:  E(RB3LYP) =  -46.3066719133     A.U. after   10 cycles
 SCF Done:  E(RB3LYP) =  -46.3066789932     A.U. after   12 cycles
 SCF Done:  E(RB3LYP) =  -46.3066792340     A.U. after    8 cycles
 SCF Done:  E(RB3LYP) =  -46.3066762980     A.U. after   12 cycles
 SCF Done:  E(RB3LYP) =  -46.3066792302     A.U. after   10 cycles
 SCF Done:  E(RB3LYP) =  -46.3066792990     A.U. after    8 cycles
 SCF Done:  E(RB3LYP) =  -46.3066497032     A.U. after   12 cycles
 SCF Done:  E(RB3LYP) =  -46.3066792299     A.U. after   10 cycles
 SCF Done:  E(RB3LYP) =  -46.3066793045     A.U. after    7 cycles
 SCF Done:  E(RB3LYP) =  -46.3066793060     A.U. after    7 cycles
 Optimization completed.
    -- Stationary point found.
 Normal termination of Gaussian 09 at Mon Nov 25 16:57:03 2013.

 --------------------------------------------------------------------
 #N Geom=AllCheck Guess=TCheck SCRF=Check GenChk RB3LYP/CEP-121G Freq
 --------------------------------------------------------------------

 Structure from the checkpoint file:  "/tmp/rdj3/g09-13608/Gau-15916.chk"
 ------------------------------------------------------------------
 1H-tetrazole CH2N4 casno=288948 state=1 config=1 method=8 basis=13
 ------------------------------------------------------------------
 Charge =  0 Multiplicity = 1

                         Standard orientation:
 ---------------------------------------------------------------------
 Center     Atomic      Atomic             Coordinates (Angstroms)
 Number     Number       Type             X           Y           Z
 ---------------------------------------------------------------------
      1          6           0        1.094764    0.258156    0.000000
      2          7           0        0.000000    1.083786    0.000000
      3          7           0       -1.166518    0.302314    0.000000
      4          7           0       -0.743275   -0.966608    0.000000
      5          7           0        0.678053   -1.023139    0.000000
      6          1           0        2.122607    0.584456    0.000000
      7          1           0       -0.069018    2.092132    0.000000
 ---------------------------------------------------------------------

 SCF Done:  E(RB3LYP) =  -46.3066793060     A.U. after    1 cycles

 The electronic state is 1-A'.
 Alpha  occ. eigenvalues --   -1.16226  -0.96814  -0.92804  -0.69967  -0.68234
 Alpha  occ. eigenvalues --   -0.61419  -0.51535  -0.50192  -0.38635  -0.34637
 Alpha  occ. eigenvalues --   -0.32876  -0.31999  -0.30881
 Alpha virt. eigenvalues --   -0.05691  -0.01885   0.00379   0.04545   0.11460
 Alpha virt. eigenvalues --    0.12400   0.14974   0.19632   0.26871   0.27054
 Alpha virt. eigenvalues --    0.32566   0.35934   0.41764   0.44042   0.45036

 Mulliken charges:
               1
     1  C   -0.174478
     2  N   -0.307979
     3  N    0.020775
     4  N   -0.096684
     5  N   -0.004765
     6  H    0.207740
     7  H    0.355393
 Sum of Mulliken charges =   0.00000

 Dipole moment (field-independent basis, Debye):
    X=              2.7217    Y=              5.1985    Z=              0.0000  Tot=              5.8679
 Quadrupole moment (field-independent basis, Debye-Ang):
   XX=            -29.9997   YY=            -27.6059   ZZ=            -28.8618
   XY=              2.1886   XZ=              0.0000   YZ=              0.0000

  Exact polarizability:  42.010   1.030  41.352   0.000   0.000  18.818
 Approx polarizability:  73.392  -0.194  78.888   0.000   0.000  24.776

                      1                      2                      3
                     A"                     A"                     A"
 Frequencies --    638.4825               684.8569               730.1849
 Red. masses --      4.9936                10.0886                 1.1165
 Frc consts  --      1.1994                 2.7879                 0.3507
 IR Inten    --     14.9697                 0.3342               129.4134

                      4                      5                      6
                     A"                     A'                     A'
 Frequencies --    833.0506               871.8421               954.5511
 Red. masses --      1.3522                 7.6063                 5.2385
 Frc consts  --      0.5529                 3.4064                 2.8123
 IR Inten    --     28.9885                 6.9918                18.6613

                      7                      8                      9
                     A'                     A'                     A'
 Frequencies --    978.5418              1011.0231              1120.9799
 Red. masses --      6.8717                 5.8606                 1.9502
 Frc consts  --      3.8768                 3.5295                 1.4439
 IR Inten    --      7.0830                14.1513                16.7313

                     10                     11                     12
                     A'                     A'                     A'
 Frequencies --   1176.5472              1213.3273              1375.4628
 Red. masses --      5.5564                 2.8122                 3.0007
 Frc consts  --      4.5317                 2.4392                 3.3448
 IR Inten    --     10.2314                 1.2118                 3.9476

                     13                     14                     15
                     A'                     A'                     A'
 Frequencies --   1461.7943              3285.0184              3663.3924
 Red. masses --      2.0023                 1.1028                 1.0854
 Frc consts  --      2.5208                 7.0118                 8.5824
 IR Inten    --     32.2593                 1.7461                74.5122

 - Thermochemistry -
 -------------------
 Temperature   298.150 Kelvin.  Pressure   1.00000 Atm.
 Atom     1 has atomic number  6 and mass  12.00000

 Molecular mass:    70.02795 amu.
 Principal axes and moments of inertia in atomic units:
                           1         2         3
     Eigenvalues --   181.76396 186.13187 367.89582
           X            0.98968   0.14330   0.00000
           Y           -0.14330   0.98968   0.00000
           Z            0.00000   0.00000   1.00000
 This molecule is an asymmetric top.
 Rotational symmetry number  1.
 Rotational temperatures (Kelvin)      0.47652     0.46534     0.23543
 Rotational constants (GHZ):           9.92904     9.69604     4.90558
 Zero-point vibrational energy     119620.9 (Joules/Mol)
                                   28.59008 (Kcal/Mol)
 Vibrational temperatures:    918.63   985.36  1050.57  1198.57  1254.38
          (Kelvin)           1373.38  1407.90  1454.63  1612.84  1692.79
                             1745.71  1978.98  2103.19  4726.40  5270.80

 Zero-point correction=                           0.045561 (Hartree/Particle)
 Thermal correction to Energy=                    0.049074
 Thermal correction to Enthalpy=                  0.050018
 Thermal correction to Gibbs Free Energy=         0.019375
 Sum of electronic and zero-point Energies=            -46.261118
 Sum of electronic and thermal Energies=               -46.257606
 Sum of electronic and thermal Enthalpies=             -46.256662
 Sum of electronic and thermal Free Energies=          -46.287305

                     E (Thermal)             CV                S
                      KCal/Mol        Cal/Mol-Kelvin    Cal/Mol-Kelvin
 Total                   30.794             11.758             64.494
 Electronic               0.000              0.000              0.000
 Translational            0.889              2.981             38.656
 Rotational               0.889              2.981             24.035
 Vibrational             29.017              5.796              1.802

 Normal termination of Gaussian 09 at Mon Nov 25 16:57:08 2013.
