 Gaussian 09, Revision D.01,
 Gaussian 09:  EM64L-G09RevD.01 24-Apr-2013

 ---------------------------
 #B3LYP/aug-cc-pVTZ opt freq
 ---------------------------

 ------------------------------------------------------------------
 1H-tetrazole CH2N4 casno=288948 state=1 config=1 method=8 basis=18
 ------------------------------------------------------------------
 Symbolic Z-matrix:
 Charge =  0 Multiplicity = 1

 SCF Done:  E(RB3LYP) =  -258.347704426     A.U. after   12 cycles
 SCF Done:  E(RB3LYP) =  -258.350442934     A.U. after   10 cycles
 SCF Done:  E(RB3LYP) =  -258.350500952     A.U. after    9 cycles
 SCF Done:  E(RB3LYP) =  -258.350518467     A.U. after    8 cycles
 SCF Done:  E(RB3LYP) =  -258.350522419     A.U. after    7 cycles
 Optimization completed.
    -- Stationary point found.
 Normal termination of Gaussian 09 at Mon Dec 16 14:18:49 2013.

 ----------------------------------------------------------------------
 #N Geom=AllCheck Guess=TCheck SCRF=Check GenChk RB3LYP/Aug-CC-pVTZ Fre
 q
 ----------------------------------------------------------------------

 Structure from the checkpoint file:  "/tmp/rdj3/g09-16160/Gau-17466.chk"
 ------------------------------------------------------------------
 1H-tetrazole CH2N4 casno=288948 state=1 config=1 method=8 basis=18
 ------------------------------------------------------------------
 Charge =  0 Multiplicity = 1

                         Standard orientation:
 ---------------------------------------------------------------------
 Center     Atomic      Atomic             Coordinates (Angstroms)
 Number     Number       Type             X           Y           Z
 ---------------------------------------------------------------------
      1          6           0        1.065095    0.235054    0.000000
      2          7           0        0.000000    1.052319    0.000000
      3          7           0       -1.117317    0.298528    0.000000
      4          7           0       -0.723049   -0.923495    0.000000
      5          7           0        0.637555   -1.002754    0.000000
      6          1           0        2.089832    0.560732    0.000000
      7          1           0       -0.060726    2.056756    0.000000
 ---------------------------------------------------------------------

 SCF Done:  E(RB3LYP) =  -258.350522419     A.U. after    1 cycles

 The electronic state is 1-A'.
 Alpha  occ. eigenvalues --  -14.43961 -14.40781 -14.39138 -14.36042 -10.27449
 Alpha  occ. eigenvalues --   -1.15782  -0.95950  -0.90858  -0.69217  -0.67910
 Alpha  occ. eigenvalues --   -0.61015  -0.51237  -0.51202  -0.39512  -0.34637
 Alpha  occ. eigenvalues --   -0.32496  -0.31869  -0.30662
 Alpha virt. eigenvalues --   -0.03808  -0.03029  -0.00618   0.00162   0.02793
 Alpha virt. eigenvalues --    0.03269   0.04867   0.05701   0.06499   0.07377
 Alpha virt. eigenvalues --    0.08116   0.08653   0.10051   0.11566   0.12487

 Mulliken charges:
               1
     1  C   -0.181402
     2  N    0.238335
     3  N   -0.282114
     4  N   -0.168811
     5  N   -0.238767
     6  H    0.518217
     7  H    0.114541
 Sum of Mulliken charges =   0.00000

 Dipole moment (field-independent basis, Debye):
    X=              2.4998    Y=              4.7251    Z=              0.0000  Tot=              5.3456
 Quadrupole moment (field-independent basis, Debye-Ang):
   XX=            -29.3704   YY=            -26.8935   ZZ=            -28.7446
   XY=              1.8917   XZ=              0.0000   YZ=              0.0000

  Exact polarizability:  45.963   0.522  45.560   0.000   0.000  26.638
 Approx polarizability:  75.010   0.446  78.949   0.000   0.000  39.567

                      1                      2                      3
                     A"                     A"                     A"
 Frequencies --    591.5205               692.8935               743.6406
 Red. masses --      1.6514                 2.0411                 8.7040
 Frc consts  --      0.3404                 0.5774                 2.8359
 IR Inten    --     81.4491                 5.9825                 7.3813

                      4                      5                      6
                     A"                     A'                     A'
 Frequencies --    873.4866               959.1609              1010.8359
 Red. masses --      1.3919                 5.8316                 6.1756
 Frc consts  --      0.6257                 3.1610                 3.7179
 IR Inten    --     16.0824                 5.6970                 0.0174

                      7                      8                      9
                     A'                     A'                     A'
 Frequencies --   1025.5717              1059.8173              1142.6873
 Red. masses --      5.2715                 3.1770                 2.0471
 Frc consts  --      3.2668                 2.1025                 1.5748
 IR Inten    --     15.4065                25.8385                17.1989

                     10                     11                     12
                     A'                     A'                     A'
 Frequencies --   1262.9690              1289.4833              1450.0008
 Red. masses --      2.2102                11.0473                 3.0433
 Frc consts  --      2.0771                10.8228                 3.7699
 IR Inten    --      3.2565                12.2284                 9.2934

                     13                     14                     15
                     A'                     A'                     A'
 Frequencies --   1505.1912              3276.6158              3643.5189
 Red. masses --      3.1693                 1.1007                 1.0836
 Frc consts  --      4.2305                 6.9625                 8.4757
 IR Inten    --     17.0911                 1.6574                91.2650

 - Thermochemistry -
 -------------------
 Temperature   298.150 Kelvin.  Pressure   1.00000 Atm.
 Atom     1 has atomic number  6 and mass  12.00000

 Molecular mass:    70.02795 amu.
 Principal axes and moments of inertia in atomic units:
                           1         2         3
     Eigenvalues --   170.68849 173.48568 344.17417
           X            0.91572   0.40182   0.00000
           Y           -0.40182   0.91572   0.00000
           Z            0.00000   0.00000   1.00000
 This molecule is an asymmetric top.
 Rotational symmetry number  1.
 Rotational temperatures (Kelvin)      0.50744     0.49926     0.25166
 Rotational constants (GHZ):          10.57330    10.40283     5.24369
 Zero-point vibrational energy     122781.1 (Joules/Mol)
                                   29.34538 (Kcal/Mol)
 Warning -- explicit consideration of   1 degrees of freedom as
           vibrations may cause significant error
 Vibrational temperatures:    851.06   996.92  1069.93  1256.75  1380.02
          (Kelvin)           1454.37  1475.57  1524.84  1644.07  1817.13
                             1855.28  2086.23  2165.63  4714.31  5242.20

 Zero-point correction=                           0.046765 (Hartree/Particle)
 Thermal correction to Energy=                    0.050231
 Thermal correction to Enthalpy=                  0.051175
 Thermal correction to Gibbs Free Energy=         0.020681
 Sum of electronic and zero-point Energies=           -258.303758
 Sum of electronic and thermal Energies=              -258.300291
 Sum of electronic and thermal Enthalpies=            -258.299347
 Sum of electronic and thermal Free Energies=         -258.329842

                     E (Thermal)             CV                S
                      KCal/Mol        Cal/Mol-Kelvin    Cal/Mol-Kelvin
 Total                   31.521             11.324             64.182
 Electronic               0.000              0.000              0.000
 Translational            0.889              2.981             38.656
 Rotational               0.889              2.981             23.837
 Vibrational             29.743              5.363              1.689
 Vibration     1          0.949              1.050              0.464

 Optimization completed.
    -- Stationary point found.
 Normal termination of Gaussian 09 at Mon Dec 16 14:26:03 2013.
