 Gaussian 09, Revision D.01,
 Gaussian 09:  EM64L-G09RevD.01 24-Apr-2013

 -------------------------
 #B3LYP/CEP-121G* opt freq
 -------------------------

 ------------------------------------------------------------------
 1H-tetrazole CH2N4 casno=288948 state=1 config=1 method=8 basis=14
 ------------------------------------------------------------------
 Symbolic Z-matrix:
 Charge =  0 Multiplicity = 1

 SCF Done:  E(RB3LYP) =  -46.4054292035     A.U. after   15 cycles
 SCF Done:  E(RB3LYP) =  -46.4133894976     A.U. after   16 cycles
 SCF Done:  E(RB3LYP) =  -46.4135129020     A.U. after   11 cycles
 SCF Done:  E(RB3LYP) =  -46.4135420166     A.U. after    9 cycles
 SCF Done:  E(RB3LYP) =  -46.4135491140     A.U. after    9 cycles
 Optimization completed.
    -- Stationary point found.
 Normal termination of Gaussian 09 at Mon Dec 16 14:07:48 2013.

 ----------------------------------------------------------------------
 #N Geom=AllCheck Guess=TCheck SCRF=Check GenChk RB3LYP/CEP-121G(d) Fre
 q
 ----------------------------------------------------------------------

 Structure from the checkpoint file:  "/tmp/rdj3/g09-16160/Gau-16216.chk"
 ------------------------------------------------------------------
 1H-tetrazole CH2N4 casno=288948 state=1 config=1 method=8 basis=14
 ------------------------------------------------------------------
 Charge =  0 Multiplicity = 1

                         Standard orientation:
 ---------------------------------------------------------------------
 Center     Atomic      Atomic             Coordinates (Angstroms)
 Number     Number       Type             X           Y           Z
 ---------------------------------------------------------------------
      1          6           0        1.076470    0.237624    0.000000
      2          7           0        0.000000    1.065178    0.000000
      3          7           0       -1.133141    0.301813    0.000000
      4          7           0       -0.729176   -0.934939    0.000000
      5          7           0        0.647628   -1.013362    0.000000
      6          1           0        2.108020    0.565960    0.000000
      7          1           0       -0.064016    2.077466    0.000000
 ---------------------------------------------------------------------

 SCF Done:  E(RB3LYP) =  -46.4135491140     A.U. after    1 cycles

 The electronic state is 1-A'.
 Alpha  occ. eigenvalues --   -1.14856  -0.95520  -0.90638  -0.68928  -0.67176
 Alpha  occ. eigenvalues --   -0.60385  -0.50772  -0.49953  -0.38916  -0.33822
 Alpha  occ. eigenvalues --   -0.31755  -0.31453  -0.30359
 Alpha virt. eigenvalues --   -0.03342   0.00307   0.00866   0.05334   0.13230
 Alpha virt. eigenvalues --    0.14818   0.15457   0.23218   0.27463   0.29225
 Alpha virt. eigenvalues --    0.35576   0.35687   0.41317   0.43100   0.45396

 Mulliken charges:
               1
     1  C   -0.246741
     2  N   -0.156307
     3  N   -0.061417
     4  N   -0.086844
     5  N   -0.024733
     6  H    0.204034
     7  H    0.372009
 Sum of Mulliken charges =   0.00000

 Dipole moment (field-independent basis, Debye):
    X=              2.4971    Y=              4.8088    Z=              0.0000  Tot=              5.4185
 Quadrupole moment (field-independent basis, Debye-Ang):
   XX=            -28.8730   YY=            -26.2428   ZZ=            -28.4431
   XY=              1.8903   XZ=              0.0000   YZ=              0.0000

  Exact polarizability:  41.456   0.962  40.725   0.000   0.000  20.027
 Approx polarizability:  70.256   0.392  74.375   0.000   0.000  30.243

                      1                      2                      3
                     A"                     A"                     A"
 Frequencies --    553.3809               679.0961               718.8631
 Red. masses --      1.8123                 1.9765                 7.9359
 Frc consts  --      0.3270                 0.5370                 2.4162
 IR Inten    --     84.5010                 9.8376                 8.8049

                      4                      5                      6
                     A"                     A'                     A'
 Frequencies --    835.4483               949.3227               993.0087
 Red. masses --      1.3407                 5.2725                 6.0984
 Frc consts  --      0.5514                 2.7996                 3.5430
 IR Inten    --     26.8713                 3.7542                 0.2402

                      7                      8                      9
                     A'                     A'                     A'
 Frequencies --   1022.9959              1047.6351              1129.6118
 Red. masses --      4.5990                 3.6926                 1.9905
 Frc consts  --      2.8357                 2.3878                 1.4964
 IR Inten    --     18.6098                27.5127                19.6993

                     10                     11                     12
                     A'                     A'                     A'
 Frequencies --   1249.0058              1276.3553              1432.6085
 Red. masses --      2.4437                 9.4732                 3.0702
 Frc consts  --      2.2461                 9.0927                 3.7126
 IR Inten    --      0.8580                17.8682                 9.1478

                     13                     14                     15
                     A'                     A'                     A'
 Frequencies --   1489.8907              3268.1106              3630.2746
 Red. masses --      3.0403                 1.1004                 1.0837
 Frc consts  --      3.9763                 6.9243                 8.4149
 IR Inten    --     17.4677                 0.1816                68.2853

 - Thermochemistry -
 -------------------
 Temperature   298.150 Kelvin.  Pressure   1.00000 Atm.
 Atom     1 has atomic number  6 and mass  12.00000

 Molecular mass:    70.02795 amu.
 Principal axes and moments of inertia in atomic units:
                           1         2         3
     Eigenvalues --   174.47096 177.86109 352.33206
           X            0.90119   0.43343   0.00000
           Y           -0.43343   0.90119   0.00000
           Z            0.00000   0.00000   1.00000
 This molecule is an asymmetric top.
 Rotational symmetry number  1.
 Rotational temperatures (Kelvin)      0.49644     0.48697     0.24583
 Rotational constants (GHZ):          10.34408    10.14691     5.12227
 Zero-point vibrational energy     121275.1 (Joules/Mol)
                                   28.98544 (Kcal/Mol)
 Warning -- explicit consideration of   1 degrees of freedom as
           vibrations may cause significant error
 Vibrational temperatures:    796.19   977.07  1034.28  1202.02  1365.86
          (Kelvin)           1428.72  1471.86  1507.31  1625.26  1797.04
                             1836.39  2061.20  2143.62  4702.08  5223.15

 Zero-point correction=                           0.046191 (Hartree/Particle)
 Thermal correction to Energy=                    0.049714
 Thermal correction to Enthalpy=                  0.050658
 Thermal correction to Gibbs Free Energy=         0.020051
 Sum of electronic and zero-point Energies=            -46.367358
 Sum of electronic and thermal Energies=               -46.363836
 Sum of electronic and thermal Enthalpies=             -46.362891
 Sum of electronic and thermal Free Energies=          -46.393498

                     E (Thermal)             CV                S
                      KCal/Mol        Cal/Mol-Kelvin    Cal/Mol-Kelvin
 Total                   31.196             11.616             64.417
 Electronic               0.000              0.000              0.000
 Translational            0.889              2.981             38.656
 Rotational               0.889              2.981             23.907
 Vibrational             29.418              5.654              1.854
 Vibration     1          0.909              1.132              0.537

 Optimization completed.
    -- Stationary point found.
 Normal termination of Gaussian 09 at Mon Dec 16 14:07:57 2013.
