 Gaussian 09, Revision D.01,
 Gaussian 09:  EM64L-G09RevD.01 24-Apr-2013

 --------------------------------
 #B3LYP/LANL2DZ opt=z-matrix freq
 --------------------------------

 ------------------------------------------------------------------
 1H-tetrazole CH2N4 casno=288948 state=1 config=1 method=8 basis=15
 ------------------------------------------------------------------
 Symbolic Z-matrix:
 Charge =  0 Multiplicity = 1

 SCF Done:  E(RB3LYP) =  -258.163727205     A.U. after   14 cycles
 SCF Done:  E(RB3LYP) =  -258.182278787     A.U. after   14 cycles
 SCF Done:  E(RB3LYP) =  -258.182808537     A.U. after   13 cycles
 SCF Done:  E(RB3LYP) =  -258.182278778     A.U. after   13 cycles
 SCF Done:  E(RB3LYP) =  -258.183099737     A.U. after   11 cycles
 SCF Done:  E(RB3LYP) =  -258.183154896     A.U. after   12 cycles
 SCF Done:  E(RB3LYP) =  -258.183170245     A.U. after   11 cycles
 SCF Done:  E(RB3LYP) =  -258.182937924     A.U. after   13 cycles
 SCF Done:  E(RB3LYP) =  -258.183171264     A.U. after   11 cycles
 SCF Done:  E(RB3LYP) =  -258.183171745     A.U. after   12 cycles
 SCF Done:  E(RB3LYP) =  -258.183172305     A.U. after    8 cycles
 SCF Done:  E(RB3LYP) =  -258.183172302     A.U. after    8 cycles
 SCF Done:  E(RB3LYP) =  -258.183172335     A.U. after    7 cycles
 SCF Done:  E(RB3LYP) =  -258.183153607     A.U. after   12 cycles
 SCF Done:  E(RB3LYP) =  -258.183172310     A.U. after    9 cycles
 SCF Done:  E(RB3LYP) =  -258.183172345     A.U. after    5 cycles
 SCF Done:  E(RB3LYP) =  -258.183172338     A.U. after    7 cycles
 Optimization completed.
    -- Stationary point found.
 Normal termination of Gaussian 09 at Mon Nov 25 16:58:31 2013.

 -------------------------------------------------------------------
 #N Geom=AllCheck Guess=TCheck SCRF=Check GenChk RB3LYP/LANL2DZ Freq
 -------------------------------------------------------------------

 Structure from the checkpoint file:  "/tmp/rdj3/g09-13608/Gau-19248.chk"
 ------------------------------------------------------------------
 1H-tetrazole CH2N4 casno=288948 state=1 config=1 method=8 basis=15
 ------------------------------------------------------------------
 Charge =  0 Multiplicity = 1

                         Standard orientation:
 ---------------------------------------------------------------------
 Center     Atomic      Atomic             Coordinates (Angstroms)
 Number     Number       Type             X           Y           Z
 ---------------------------------------------------------------------
      1          6           0        1.090327    0.257654    0.000000
      2          7           0        0.000000    1.078884    0.000000
      3          7           0       -1.158109    0.299944    0.000000
      4          7           0       -0.738119   -0.962623    0.000000
      5          7           0        0.670437   -1.018027    0.000000
      6          1           0        2.117977    0.580135    0.000000
      7          1           0       -0.079409    2.086694    0.000000
 ---------------------------------------------------------------------

 SCF Done:  E(RB3LYP) =  -258.183172338     A.U. after    1 cycles

 The electronic state is 1-A'.
 Alpha  occ. eigenvalues --  -14.45706 -14.43949 -14.42039 -14.39136 -10.30806
 Alpha  occ. eigenvalues --   -1.16168  -0.96506  -0.92236  -0.69768  -0.68107
 Alpha  occ. eigenvalues --   -0.61377  -0.51552  -0.50432  -0.38369  -0.34792
 Alpha  occ. eigenvalues --   -0.32942  -0.31702  -0.30436
 Alpha virt. eigenvalues --   -0.05642  -0.01841   0.05138   0.09714   0.12953
 Alpha virt. eigenvalues --    0.14184   0.20551   0.27524   0.28308   0.30682
 Alpha virt. eigenvalues --    0.35304   0.44840   0.45150   0.46419   0.48507

 Mulliken charges:
               1
     1  C   -0.117699
     2  N   -0.347550
     3  N   -0.007733
     4  N   -0.074413
     5  N   -0.101212
     6  H    0.292294
     7  H    0.356313
 Sum of Mulliken charges =   0.00000

 Dipole moment (field-independent basis, Debye):
    X=              2.7227    Y=              5.2199    Z=              0.0000  Tot=              5.8873
 Quadrupole moment (field-independent basis, Debye-Ang):
   XX=            -29.9395   YY=            -27.5224   ZZ=            -28.7737
   XY=              2.1343   XZ=              0.0000   YZ=              0.0000

  Exact polarizability:  39.826   0.856  39.504   0.000   0.000  15.365
 Approx polarizability:  70.230  -0.318  75.828   0.000   0.000  19.656

                      1                      2                      3
                     A"                     A"                     A"
 Frequencies --    655.6393               702.7606               746.9630
 Red. masses --      4.0400                10.5214                 1.1243
 Frc consts  --      1.0232                 3.0615                 0.3696
 IR Inten    --     10.2035                 0.7622               151.3663

                      4                      5                      6
                     A"                     A'                     A'
 Frequencies --    857.4692               885.5277               959.1678
 Red. masses --      1.4253                 7.1686                 5.8110
 Frc consts  --      0.6174                 3.3120                 3.1498
 IR Inten    --     20.2300                 8.3068                17.9640

                      7                      8                      9
                     A'                     A'                     A'
 Frequencies --    992.8324              1023.7729              1134.9949
 Red. masses --      7.2243                 5.9488                 2.0987
 Frc consts  --      4.1956                 3.6736                 1.5929
 IR Inten    --      6.5969                13.5763                15.4394

                     10                     11                     12
                     A'                     A'                     A'
 Frequencies --   1181.5057              1230.1244              1385.9140
 Red. masses --      4.1388                 2.8182                 2.9141
 Frc consts  --      3.4040                 2.5126                 3.2978
 IR Inten    --     12.6139                 1.5470                 4.1356

                     13                     14                     15
                     A'                     A'                     A'
 Frequencies --   1466.5054              3338.9561              3697.6927
 Red. masses --      2.0656                 1.1022                 1.0852
 Frc consts  --      2.6174                 7.2398                 8.7421
 IR Inten    --     34.4314                 3.5399               104.9269

 - Thermochemistry -
 -------------------
 Temperature   298.150 Kelvin.  Pressure   1.00000 Atm.
 Atom     1 has atomic number  6 and mass  12.00000

 Molecular mass:    70.02795 amu.
 Principal axes and moments of inertia in atomic units:
                           1         2         3
     Eigenvalues --   180.19643 183.73269 363.92913
           X            0.99416   0.10787   0.00000
           Y           -0.10787   0.99416   0.00000
           Z            0.00000   0.00000   1.00000
 This molecule is an asymmetric top.
 Rotational symmetry number  1.
 Rotational temperatures (Kelvin)      0.48066     0.47141     0.23800
 Rotational constants (GHZ):          10.01541     9.82265     4.95905
 Zero-point vibrational energy     121180.7 (Joules/Mol)
                                   28.96288 (Kcal/Mol)
 Vibrational temperatures:    943.32  1011.11  1074.71  1233.71  1274.08
          (Kelvin)           1380.03  1428.46  1472.98  1633.00  1699.92
                             1769.87  1994.02  2109.97  4804.01  5320.15

 Zero-point correction=                           0.046155 (Hartree/Particle)
 Thermal correction to Energy=                    0.049629
 Thermal correction to Enthalpy=                  0.050574
 Thermal correction to Gibbs Free Energy=         0.019998
 Sum of electronic and zero-point Energies=           -258.137017
 Sum of electronic and thermal Energies=              -258.133543
 Sum of electronic and thermal Enthalpies=            -258.132599
 Sum of electronic and thermal Free Energies=         -258.163175

                     E (Thermal)             CV                S
                      KCal/Mol        Cal/Mol-Kelvin    Cal/Mol-Kelvin
 Total                   31.143             11.536             64.353
 Electronic               0.000              0.000              0.000
 Translational            0.889              2.981             38.656
 Rotational               0.889              2.981             24.003
 Vibrational             29.365              5.574              1.694

 Normal termination of Gaussian 09 at Mon Nov 25 16:58:35 2013.
