 Gaussian 09, Revision D.01,
 Gaussian 09:  EM64L-G09RevD.01 24-Apr-2013

 -------------------------------------
 #B3LYP/6-31G(2df,p) opt=z-matrix freq
 -------------------------------------

 ------------------------------------------------------------------
 1H-tetrazole CH2N4 casno=288948 state=1 config=1 method=8 basis=19
 ------------------------------------------------------------------
 Symbolic Z-matrix:
 Charge =  0 Multiplicity = 1

 SCF Done:  E(RB3LYP) =  -258.263978641     A.U. after   14 cycles
 SCF Done:  E(RB3LYP) =  -258.267581340     A.U. after   12 cycles
 SCF Done:  E(RB3LYP) =  -258.267618247     A.U. after   11 cycles
 SCF Done:  E(RB3LYP) =  -258.267652294     A.U. after   10 cycles
 SCF Done:  E(RB3LYP) =  -258.267656903     A.U. after    9 cycles
 SCF Done:  E(RB3LYP) =  -258.267446638     A.U. after   11 cycles
 SCF Done:  E(RB3LYP) =  -258.267666577     A.U. after    8 cycles
 SCF Done:  E(RB3LYP) =  -258.267616898     A.U. after   10 cycles
 SCF Done:  E(RB3LYP) =  -258.267666018     A.U. after    8 cycles
 SCF Done:  E(RB3LYP) =  -258.267666539     A.U. after    3 cycles
 SCF Done:  E(RB3LYP) =  -258.267667845     A.U. after    7 cycles
 SCF Done:  E(RB3LYP) =  -258.267668115     A.U. after    8 cycles
 SCF Done:  E(RB3LYP) =  -258.267657466     A.U. after    9 cycles
 SCF Done:  E(RB3LYP) =  -258.258248360     A.U. after   14 cycles
 SCF Done:  E(RB3LYP) =  -258.267668239     A.U. after    7 cycles
 SCF Done:  E(RB3LYP) =  -258.267425145     A.U. after   11 cycles
 SCF Done:  E(RB3LYP) =  -258.267668245     A.U. after    7 cycles
 Optimization completed.
    -- Stationary point found.
 Normal termination of Gaussian 09 at Mon Nov 25 17:39:27 2013.

 ----------------------------------------------------------------------
 #N Geom=AllCheck Guess=TCheck SCRF=Check GenChk RB3LYP/6-31G(2df,p) Fr
 eq
 ----------------------------------------------------------------------

 Structure from the checkpoint file:  "/tmp/rdj3/g09-13608/Gau-25970.chk"
 ------------------------------------------------------------------
 1H-tetrazole CH2N4 casno=288948 state=1 config=1 method=8 basis=19
 ------------------------------------------------------------------
 Charge =  0 Multiplicity = 1

                         Standard orientation:
 ---------------------------------------------------------------------
 Center     Atomic      Atomic             Coordinates (Angstroms)
 Number     Number       Type             X           Y           Z
 ---------------------------------------------------------------------
      1          6           0        1.066045    0.235861    0.000000
      2          7           0        0.000000    1.054004    0.000000
      3          7           0       -1.119655    0.300689    0.000000
      4          7           0       -0.722278   -0.925941    0.000000
      5          7           0        0.638289   -1.005914    0.000000
      6          1           0        2.091860    0.565388    0.000000
      7          1           0       -0.062616    2.059581    0.000000
 ---------------------------------------------------------------------

 SCF Done:  E(RB3LYP) =  -258.267668245     A.U. after    1 cycles

 The electronic state is 1-A'.
 Alpha  occ. eigenvalues --  -14.44279 -14.40800 -14.39142 -14.36160 -10.27592
 Alpha  occ. eigenvalues --   -1.14246  -0.94692  -0.89408  -0.68035  -0.66547
 Alpha  occ. eigenvalues --   -0.59724  -0.49990  -0.49792  -0.38075  -0.33265
 Alpha  occ. eigenvalues --   -0.31045  -0.30492  -0.29199
 Alpha virt. eigenvalues --   -0.02111   0.01548   0.05559   0.10735   0.17843
 Alpha virt. eigenvalues --    0.19629   0.26509   0.28702   0.37847   0.42422
 Alpha virt. eigenvalues --    0.46210   0.47528   0.50686   0.53689   0.55565

 Mulliken charges:
               1
     1  C    0.085300
     2  N   -0.184282
     3  N   -0.077546
     4  N   -0.086549
     5  N   -0.205560
     6  H    0.172017
     7  H    0.296621
 Sum of Mulliken charges =   0.00000

 Dipole moment (field-independent basis, Debye):
    X=              2.4196    Y=              4.6155    Z=              0.0000  Tot=              5.2112
 Quadrupole moment (field-independent basis, Debye-Ang):
   XX=            -28.4659   YY=            -25.8539   ZZ=            -27.9328
   XY=              1.7533   XZ=              0.0000   YZ=              0.0000

  Exact polarizability:  38.898   0.980  38.232   0.000   0.000  18.283
 Approx polarizability:  68.471   0.444  72.289   0.000   0.000  29.497

                      1                      2                      3
                     A"                     A"                     A"
 Frequencies --    582.5017               693.2193               742.9212
 Red. masses --      1.6692                 2.0722                 8.6367
 Frc consts  --      0.3337                 0.5867                 2.8086
 IR Inten    --     77.5897                 6.2655                 7.6001

                      4                      5                      6
                     A"                     A'                     A'
 Frequencies --    866.2522               973.8979              1014.0315
 Red. masses --      1.3671                 4.8458                 6.0997
 Frc consts  --      0.6044                 2.7079                 3.6954
 IR Inten    --     13.1513                 4.3201                 0.4600

                      7                      8                      9
                     A'                     A'                     A'
 Frequencies --   1049.6821              1070.9315              1150.7284
 Red. masses --      5.2032                 3.3587                 1.9751
 Frc consts  --      3.3778                 2.2696                 1.5409
 IR Inten    --     15.4174                28.7762                15.6180

                     10                     11                     12
                     A'                     A'                     A'
 Frequencies --   1267.5816              1298.7777              1457.3169
 Red. masses --      2.3089                10.9888                 3.1304
 Frc consts  --      2.1858                10.9212                 3.9171
 IR Inten    --      2.9780                13.1521                 8.6101

                     13                     14                     15
                     A'                     A'                     A'
 Frequencies --   1508.5438              3289.7920              3662.4549
 Red. masses --      3.3024                 1.1002                 1.0834
 Frc consts  --      4.4279                 7.0155                 8.5619
 IR Inten    --     17.1930                 0.9871                86.7911

 - Thermochemistry -
 -------------------
 Temperature   298.150 Kelvin.  Pressure   1.00000 Atm.
 Atom     1 has atomic number  6 and mass  12.00000

 Molecular mass:    70.02795 amu.
 Principal axes and moments of inertia in atomic units:
                           1         2         3
     Eigenvalues --   171.31284 174.09296 345.40579
           X            0.86744   0.49754   0.00000
           Y           -0.49754   0.86744   0.00000
           Z            0.00000   0.00000   1.00000
 This molecule is an asymmetric top.
 Rotational symmetry number  1.
 Rotational temperatures (Kelvin)      0.50559     0.49751     0.25076
 Rotational constants (GHZ):          10.53477    10.36654     5.22499
 Zero-point vibrational energy     123386.6 (Joules/Mol)
                                   29.49011 (Kcal/Mol)
 Warning -- explicit consideration of   1 degrees of freedom as
           vibrations may cause significant error
 Vibrational temperatures:    838.09   997.39  1068.90  1246.34  1401.22
          (Kelvin)           1458.96  1510.26  1540.83  1655.64  1823.76
                             1868.65  2096.75  2170.46  4733.27  5269.45

 Zero-point correction=                           0.046995 (Hartree/Particle)
 Thermal correction to Energy=                    0.050460
 Thermal correction to Enthalpy=                  0.051404
 Thermal correction to Gibbs Free Energy=         0.020905
 Sum of electronic and zero-point Energies=           -258.220673
 Sum of electronic and thermal Energies=              -258.217208
 Sum of electronic and thermal Enthalpies=            -258.216264
 Sum of electronic and thermal Free Energies=         -258.246763

                     E (Thermal)             CV                S
                      KCal/Mol        Cal/Mol-Kelvin    Cal/Mol-Kelvin
 Total                   31.664             11.283             64.191
 Electronic               0.000              0.000              0.000
 Translational            0.889              2.981             38.656
 Rotational               0.889              2.981             23.847
 Vibrational             29.887              5.321              1.688
 Vibration     1          0.939              1.069              0.481

 Normal termination of Gaussian 09 at Mon Nov 25 17:40:07 2013.
