 Gaussian 09, Revision D.01,
 Gaussian 09:  EM64L-G09RevD.01 24-Apr-2013

 ---------------------------------
 #B3LYP/CEP-31G* opt=z-matrix freq
 ---------------------------------

 ------------------------------------------------------------------
 1H-tetrazole CH2N4 casno=288948 state=1 config=1 method=8 basis=12
 ------------------------------------------------------------------
 Symbolic Z-matrix:
 Charge =  0 Multiplicity = 1

 SCF Done:  E(RB3LYP) =  -46.3933148853     A.U. after   15 cycles
 SCF Done:  E(RB3LYP) =  -46.4034365742     A.U. after   16 cycles
 SCF Done:  E(RB3LYP) =  -46.4035447361     A.U. after   13 cycles
 SCF Done:  E(RB3LYP) =  -46.4027980537     A.U. after   13 cycles
 SCF Done:  E(RB3LYP) =  -46.4035989079     A.U. after   11 cycles
 SCF Done:  E(RB3LYP) =  -46.4036124574     A.U. after   10 cycles
 SCF Done:  E(RB3LYP) =  -46.4036154340     A.U. after    9 cycles
 SCF Done:  E(RB3LYP) =  -46.4026452640     A.U. after   13 cycles
 SCF Done:  E(RB3LYP) =  -46.4036170769     A.U. after   10 cycles
 Optimization completed.
    -- Stationary point found.
 Normal termination of Gaussian 09 at Mon Nov 25 16:56:27 2013.

 ----------------------------------------------------------------------
 #N Geom=AllCheck Guess=TCheck SCRF=Check GenChk RB3LYP/CEP-31G(d) Freq
 ----------------------------------------------------------------------

 Structure from the checkpoint file:  "/tmp/rdj3/g09-13608/Gau-15025.chk"
 ------------------------------------------------------------------
 1H-tetrazole CH2N4 casno=288948 state=1 config=1 method=8 basis=12
 ------------------------------------------------------------------
 Charge =  0 Multiplicity = 1

                         Standard orientation:
 ---------------------------------------------------------------------
 Center     Atomic      Atomic             Coordinates (Angstroms)
 Number     Number       Type             X           Y           Z
 ---------------------------------------------------------------------
      1          6           0        1.077641    0.238760    0.000000
      2          7           0        0.000000    1.068531    0.000000
      3          7           0       -1.135407    0.303827    0.000000
      4          7           0       -0.729175   -0.938647    0.000000
      5          7           0        0.648326   -1.017309    0.000000
      6          1           0        2.115465    0.567391    0.000000
      7          1           0       -0.067520    2.085235    0.000000
 ---------------------------------------------------------------------

 SCF Done:  E(RB3LYP) =  -46.4036170769     A.U. after    1 cycles

 The electronic state is 1-A'.
 Alpha  occ. eigenvalues --   -1.14314  -0.95271  -0.90178  -0.68660  -0.66811
 Alpha  occ. eigenvalues --   -0.60008  -0.50375  -0.49663  -0.38632  -0.33689
 Alpha  occ. eigenvalues --   -0.31483  -0.31280  -0.30109
 Alpha virt. eigenvalues --   -0.03344   0.00328   0.05837   0.11551   0.13770
 Alpha virt. eigenvalues --    0.15370   0.23281   0.25611   0.28121   0.30671
 Alpha virt. eigenvalues --    0.32631   0.45465   0.45999   0.46245   0.48741

 Mulliken charges:
               1
     1  C   -0.592560
     2  N    0.003206
     3  N   -0.064938
     4  N   -0.101859
     5  N    0.111668
     6  H    0.281365
     7  H    0.363118
 Sum of Mulliken charges =   0.00000

 Dipole moment (field-independent basis, Debye):
    X=              2.5612    Y=              4.8646    Z=              0.0000  Tot=              5.4976
 Quadrupole moment (field-independent basis, Debye-Ang):
   XX=            -28.7436   YY=            -26.1959   ZZ=            -28.3428
   XY=              1.8950   XZ=              0.0000   YZ=              0.0000

  Exact polarizability:  39.987   0.580  39.785   0.000   0.000  17.761
 Approx polarizability:  68.987  -0.209  73.403   0.000   0.000  26.428

                      1                      2                      3
                     A"                     A"                     A"
 Frequencies --    569.8595               675.7024               714.0791
 Red. masses --      1.8834                 1.9157                 7.5383
 Frc consts  --      0.3603                 0.5153                 2.2647
 IR Inten    --     87.0453                11.6984                 9.8720

                      4                      5                      6
                     A"                     A'                     A'
 Frequencies --    846.2282               950.9002               988.1558
 Red. masses --      1.3448                 4.7403                 6.3941
 Frc consts  --      0.5674                 2.5254                 3.6786
 IR Inten    --     31.8026                 3.2176                 0.5309

                      7                      8                      9
                     A'                     A'                     A'
 Frequencies --   1034.0115              1060.8667              1131.8333
 Red. masses --      3.7022                 4.8168                 1.8008
 Frc consts  --      2.3322                 3.1940                 1.3592
 IR Inten    --     22.1635                25.6058                17.5972

                     10                     11                     12
                     A'                     A'                     A'
 Frequencies --   1254.8246              1294.3709              1435.9455
 Red. masses --      2.4233                 9.4413                 3.1788
 Frc consts  --      2.2481                 9.3197                 3.8618
 IR Inten    --      0.7348                22.0254                 7.2713

                     13                     14                     15
                     A'                     A'                     A'
 Frequencies --   1495.9319              3279.3786              3646.1558
 Red. masses --      3.5687                 1.1003                 1.0840
 Frc consts  --      4.7052                 6.9719                 8.4911
 IR Inten    --     16.7082                 0.1527                83.7327

 - Thermochemistry -
 -------------------
 Temperature   298.150 Kelvin.  Pressure   1.00000 Atm.
 Atom     1 has atomic number  6 and mass  12.00000

 Molecular mass:    70.02795 amu.
 Principal axes and moments of inertia in atomic units:
                           1         2         3
     Eigenvalues --   175.49686 178.66948 354.16634
           X            0.84245   0.53878   0.00000
           Y           -0.53878   0.84245   0.00000
           Z            0.00000   0.00000   1.00000
 This molecule is an asymmetric top.
 Rotational symmetry number  1.
 Rotational temperatures (Kelvin)      0.49353     0.48477     0.24456
 Rotational constants (GHZ):          10.28361    10.10100     5.09574
 Zero-point vibrational energy     121889.0 (Joules/Mol)
                                   29.13216 (Kcal/Mol)
 Warning -- explicit consideration of   1 degrees of freedom as
           vibrations may cause significant error
 Vibrational temperatures:    819.90   972.18  1027.40  1217.53  1368.13
          (Kelvin)           1421.73  1487.71  1526.35  1628.45  1805.41
                             1862.31  2066.00  2152.31  4718.29  5246.00

 Zero-point correction=                           0.046425 (Hartree/Particle)
 Thermal correction to Energy=                    0.049934
 Thermal correction to Enthalpy=                  0.050878
 Thermal correction to Gibbs Free Energy=         0.020283
 Sum of electronic and zero-point Energies=            -46.357192
 Sum of electronic and thermal Energies=               -46.353683
 Sum of electronic and thermal Enthalpies=             -46.352739
 Sum of electronic and thermal Free Energies=          -46.383334

                     E (Thermal)             CV                S
                      KCal/Mol        Cal/Mol-Kelvin    Cal/Mol-Kelvin
 Total                   31.334             11.542             64.391
 Electronic               0.000              0.000              0.000
 Translational            0.889              2.981             38.656
 Rotational               0.889              2.981             23.922
 Vibrational             29.556              5.580              1.813
 Vibration     1          0.926              1.096              0.505

 Normal termination of Gaussian 09 at Mon Nov 25 16:56:35 2013.
