 Gaussian 09, Revision D.01,
 Gaussian 09:  EM64L-G09RevD.01 24-Apr-2013

 ----------------------------
 #B3LYP/SDD opt=z-matrix freq
 ----------------------------

 ------------------------------------------------------------------
 1H-tetrazole CH2N4 casno=288948 state=1 config=1 method=8 basis=16
 ------------------------------------------------------------------
 Symbolic Z-matrix:
 Charge =  0 Multiplicity = 1

 SCF Done:  E(RB3LYP) =  -258.164614286     A.U. after   14 cycles
 SCF Done:  E(RB3LYP) =  -258.183270839     A.U. after   14 cycles
 SCF Done:  E(RB3LYP) =  -258.183802880     A.U. after   13 cycles
 SCF Done:  E(RB3LYP) =  -258.183279786     A.U. after   13 cycles
 SCF Done:  E(RB3LYP) =  -258.184096906     A.U. after   11 cycles
 SCF Done:  E(RB3LYP) =  -258.184153086     A.U. after   12 cycles
 SCF Done:  E(RB3LYP) =  -258.184168179     A.U. after   11 cycles
 SCF Done:  E(RB3LYP) =  -258.183917314     A.U. after   13 cycles
 SCF Done:  E(RB3LYP) =  -258.184169953     A.U. after   11 cycles
 SCF Done:  E(RB3LYP) =  -258.184170779     A.U. after    9 cycles
 SCF Done:  E(RB3LYP) =  -258.184170834     A.U. after    8 cycles
 SCF Done:  E(RB3LYP) =  -258.183845408     A.U. after   12 cycles
 SCF Done:  E(RB3LYP) =  -258.175327591     A.U. after   14 cycles
 SCF Done:  E(RB3LYP) =  -258.184170835     A.U. after    8 cycles
 SCF Done:  E(RB3LYP) =  -258.182270352     A.U. after   13 cycles
 SCF Done:  E(RB3LYP) =  -258.184170831     A.U. after    8 cycles
 SCF Done:  E(RB3LYP) =  -258.184170903     A.U. after    7 cycles
 SCF Done:  E(RB3LYP) =  -258.184170850     A.U. after    8 cycles
 SCF Done:  E(RB3LYP) =  -258.184170931     A.U. after    7 cycles
 Optimization completed.
    -- Stationary point found.
 Normal termination of Gaussian 09 at Mon Nov 25 16:59:04 2013.

 ---------------------------------------------------------------
 #N Geom=AllCheck Guess=TCheck SCRF=Check GenChk RB3LYP/SDD Freq
 ---------------------------------------------------------------

 Structure from the checkpoint file:  "/tmp/rdj3/g09-13608/Gau-20759.chk"
 ------------------------------------------------------------------
 1H-tetrazole CH2N4 casno=288948 state=1 config=1 method=8 basis=16
 ------------------------------------------------------------------
 Charge =  0 Multiplicity = 1

                         Standard orientation:
 ---------------------------------------------------------------------
 Center     Atomic      Atomic             Coordinates (Angstroms)
 Number     Number       Type             X           Y           Z
 ---------------------------------------------------------------------
      1          6           0        1.090498    0.257676    0.000000
      2          7           0        0.000000    1.078972    0.000000
      3          7           0       -1.158225    0.299979    0.000000
      4          7           0       -0.738453   -0.962714    0.000000
      5          7           0        0.670725   -1.018120    0.000000
      6          1           0        2.118145    0.580299    0.000000
      7          1           0       -0.079463    2.086827    0.000000
 ---------------------------------------------------------------------

 SCF Done:  E(RB3LYP) =  -258.184170931     A.U. after    1 cycles

 The electronic state is 1-A'.
 Alpha  occ. eigenvalues --  -14.45495 -14.43630 -14.41716 -14.38864 -10.30500
 Alpha  occ. eigenvalues --   -1.16114  -0.96459  -0.92199  -0.69727  -0.68070
 Alpha  occ. eigenvalues --   -0.61334  -0.51504  -0.50396  -0.38336  -0.34755
 Alpha  occ. eigenvalues --   -0.32910  -0.31676  -0.30421
 Alpha virt. eigenvalues --   -0.05608  -0.01816   0.05147   0.09717   0.12935
 Alpha virt. eigenvalues --    0.14176   0.20558   0.27546   0.28314   0.30614
 Alpha virt. eigenvalues --    0.35185   0.44156   0.45082   0.46432   0.47877

 Mulliken charges:
               1
     1  C   -0.118676
     2  N   -0.349313
     3  N   -0.004948
     4  N   -0.073428
     5  N   -0.099804
     6  H    0.290220
     7  H    0.355948
 Sum of Mulliken charges =   0.00000

 Dipole moment (field-independent basis, Debye):
    X=              2.7181    Y=              5.2154    Z=              0.0000  Tot=              5.8812
 Quadrupole moment (field-independent basis, Debye-Ang):
   XX=            -29.9559   YY=            -27.5381   ZZ=            -28.7637
   XY=              2.1340   XZ=              0.0000   YZ=              0.0000

  Exact polarizability:  39.902   0.861  39.569   0.000   0.000  15.537
 Approx polarizability:  70.313  -0.304  75.926   0.000   0.000  19.925

                      1                      2                      3
                     A"                     A"                     A"
 Frequencies --    655.2079               702.6293               746.1819
 Red. masses --      4.0608                10.4996                 1.1239
 Frc consts  --      1.0271                 3.0541                 0.3687
 IR Inten    --     10.3819                 0.7344               149.9532

                      4                      5                      6
                     A"                     A'                     A'
 Frequencies --    857.6901               883.8876               958.6012
 Red. masses --      1.4236                 7.2149                 5.7757
 Frc consts  --      0.6170                 3.3211                 3.1270
 IR Inten    --     20.0564                 8.2009                17.9568

                      7                      8                      9
                     A'                     A'                     A'
 Frequencies --    992.2192              1022.9966              1134.7363
 Red. masses --      7.1862                 5.9536                 2.0817
 Frc consts  --      4.1683                 3.6710                 1.5793
 IR Inten    --      6.7766                13.3176                15.3896

                     10                     11                     12
                     A'                     A'                     A'
 Frequencies --   1181.8079              1229.8559              1386.0079
 Red. masses --      4.2038                 2.8102                 2.9129
 Frc consts  --      3.4593                 2.5043                 3.2969
 IR Inten    --     12.4719                 1.5247                 4.3182

                     13                     14                     15
                     A'                     A'                     A'
 Frequencies --   1466.5729              3339.7409              3697.2413
 Red. masses --      2.0747                 1.1022                 1.0851
 Frc consts  --      2.6291                 7.2430                 8.7395
 IR Inten    --     34.4986                 3.3239               103.6902

 - Thermochemistry -
 -------------------
 Temperature   298.150 Kelvin.  Pressure   1.00000 Atm.
 Atom     1 has atomic number  6 and mass  12.00000

 Molecular mass:    70.02795 amu.
 Principal axes and moments of inertia in atomic units:
                           1         2         3
     Eigenvalues --   180.22928 183.80777 364.03705
           X            0.99436   0.10603   0.00000
           Y           -0.10603   0.99436   0.00000
           Z            0.00000   0.00000   1.00000
 This molecule is an asymmetric top.
 Rotational symmetry number  1.
 Rotational temperatures (Kelvin)      0.48058     0.47122     0.23793
 Rotational constants (GHZ):          10.01359     9.81863     4.95758
 Zero-point vibrational energy     121154.1 (Joules/Mol)
                                   28.95651 (Kcal/Mol)
 Vibrational temperatures:    942.70  1010.93  1073.59  1234.02  1271.72
          (Kelvin)           1379.21  1427.58  1471.86  1632.63  1700.36
                             1769.49  1994.15  2110.07  4805.14  5319.50

 Zero-point correction=                           0.046145 (Hartree/Particle)
 Thermal correction to Energy=                    0.049620
 Thermal correction to Enthalpy=                  0.050565
 Thermal correction to Gibbs Free Energy=         0.019987
 Sum of electronic and zero-point Energies=           -258.138026
 Sum of electronic and thermal Energies=              -258.134550
 Sum of electronic and thermal Enthalpies=            -258.133606
 Sum of electronic and thermal Free Energies=         -258.164184

                     E (Thermal)             CV                S
                      KCal/Mol        Cal/Mol-Kelvin    Cal/Mol-Kelvin
 Total                   31.137             11.543             64.357
 Electronic               0.000              0.000              0.000
 Translational            0.889              2.981             38.656
 Rotational               0.889              2.981             24.004
 Vibrational             29.360              5.581              1.697

 Normal termination of Gaussian 09 at Mon Nov 25 16:59:08 2013.
