 Gaussian 09, Revision D.01,
 Gaussian 09:  EM64L-G09RevD.01 24-Apr-2013

 --------------------------------
 #B3LYP/CEP-31G opt=z-matrix freq
 --------------------------------

 ------------------------------------------------------------------
 1H-tetrazole CH2N4 casno=288948 state=1 config=1 method=8 basis=11
 ------------------------------------------------------------------
 Symbolic Z-matrix:
 Charge =  0 Multiplicity = 1

 SCF Done:  E(RB3LYP) =  -46.2693605686     A.U. after   15 cycles
 SCF Done:  E(RB3LYP) =  -46.2956054366     A.U. after   15 cycles
 SCF Done:  E(RB3LYP) =  -46.2963389128     A.U. after   14 cycles
 SCF Done:  E(RB3LYP) =  -46.2948157945     A.U. after   14 cycles
 SCF Done:  E(RB3LYP) =  -46.2967350200     A.U. after   12 cycles
 SCF Done:  E(RB3LYP) =  -46.2967942495     A.U. after   13 cycles
 SCF Done:  E(RB3LYP) =  -46.2968131582     A.U. after   10 cycles
 SCF Done:  E(RB3LYP) =  -46.2965300886     A.U. after   14 cycles
 SCF Done:  E(RB3LYP) =  -46.2968180144     A.U. after   11 cycles
 SCF Done:  E(RB3LYP) =  -46.2968216022     A.U. after    9 cycles
 SCF Done:  E(RB3LYP) =  -46.2966764071     A.U. after   14 cycles
 SCF Done:  E(RB3LYP) =  -46.2968231738     A.U. after   11 cycles
 SCF Done:  E(RB3LYP) =  -46.2968235312     A.U. after    8 cycles
 SCF Done:  E(RB3LYP) =  -46.2968235373     A.U. after    8 cycles
 SCF Done:  E(RB3LYP) =  -46.2968235463     A.U. after    8 cycles
 Optimization completed.
    -- Stationary point found.
 Normal termination of Gaussian 09 at Mon Nov 25 16:56:04 2013.

 -------------------------------------------------------------------
 #N Geom=AllCheck Guess=TCheck SCRF=Check GenChk RB3LYP/CEP-31G Freq
 -------------------------------------------------------------------

 Structure from the checkpoint file:  "/tmp/rdj3/g09-13608/Gau-13664.chk"
 ------------------------------------------------------------------
 1H-tetrazole CH2N4 casno=288948 state=1 config=1 method=8 basis=11
 ------------------------------------------------------------------
 Charge =  0 Multiplicity = 1

                         Standard orientation:
 ---------------------------------------------------------------------
 Center     Atomic      Atomic             Coordinates (Angstroms)
 Number     Number       Type             X           Y           Z
 ---------------------------------------------------------------------
      1          6           0        1.096928    0.257766    0.000000
      2          7           0        0.000000    1.089871    0.000000
      3          7           0       -1.170149    0.302923    0.000000
      4          7           0       -0.743945   -0.968727    0.000000
      5          7           0        0.678783   -1.028615    0.000000
      6          1           0        2.131098    0.581738    0.000000
      7          1           0       -0.065485    2.103502    0.000000
 ---------------------------------------------------------------------

 SCF Done:  E(RB3LYP) =  -46.2968235463     A.U. after    1 cycles

 The electronic state is 1-A'.
 Alpha  occ. eigenvalues --   -1.15907  -0.96691  -0.92659  -0.69833  -0.67958
 Alpha  occ. eigenvalues --   -0.61159  -0.51338  -0.50018  -0.38458  -0.34618
 Alpha  occ. eigenvalues --   -0.32815  -0.31864  -0.30730
 Alpha virt. eigenvalues --   -0.05846  -0.02013   0.04851   0.09363   0.12400
 Alpha virt. eigenvalues --    0.13344   0.19551   0.25326   0.27440   0.28078
 Alpha virt. eigenvalues --    0.31397   0.44433   0.45756   0.46207   0.49080

 Mulliken charges:
               1
     1  C   -0.432750
     2  N   -0.178416
     3  N   -0.005679
     4  N   -0.117492
     5  N    0.078756
     6  H    0.291776
     7  H    0.363806
 Sum of Mulliken charges =   0.00000

 Dipole moment (field-independent basis, Debye):
    X=              2.8428    Y=              5.2863    Z=              0.0000  Tot=              6.0022
 Quadrupole moment (field-independent basis, Debye-Ang):
   XX=            -29.9354   YY=            -27.6361   ZZ=            -28.8363
   XY=              2.2104   XZ=              0.0000   YZ=              0.0000

  Exact polarizability:  40.495   0.650  40.456   0.000   0.000  16.347
 Approx polarizability:  71.733  -0.885  77.964   0.000   0.000  20.712

                      1                      2                      3
                     A"                     A"                     A"
 Frequencies --    632.9831               682.4968               712.8705
 Red. masses --      4.9104                10.0779                 1.1199
 Frc consts  --      1.1592                 2.7658                 0.3353
 IR Inten    --     24.3508                 0.0403               134.6187

                      4                      5                      6
                     A"                     A'                     A'
 Frequencies --    847.7565               878.4257               947.0102
 Red. masses --      1.3544                 7.0770                 5.1775
 Frc consts  --      0.5735                 3.2175                 2.7358
 IR Inten    --     32.9404                 7.2847                16.9767

                      7                      8                      9
                     A'                     A'                     A'
 Frequencies --    972.8801              1004.1241              1117.8178
 Red. masses --      7.5576                 6.0311                 1.8422
 Frc consts  --      4.2145                 3.5828                 1.3562
 IR Inten    --      6.7324                16.0527                18.2511

                     10                     11                     12
                     A'                     A'                     A'
 Frequencies --   1175.2974              1206.0290              1368.5354
 Red. masses --      5.5891                 2.8812                 2.9411
 Frc consts  --      4.5487                 2.4691                 3.2455
 IR Inten    --     12.3242                 0.8573                 3.1367

                     13                     14                     15
                     A'                     A'                     A'
 Frequencies --   1447.9146              3315.3092              3690.5024
 Red. masses --      2.0983                 1.1011                 1.0854
 Frc consts  --      2.5918                 7.1307                 8.7100
 IR Inten    --     27.3623                 1.4212                94.9676

 - Thermochemistry -
 -------------------
 Temperature   298.150 Kelvin.  Pressure   1.00000 Atm.
 Atom     1 has atomic number  6 and mass  12.00000

 Molecular mass:    70.02795 amu.
 Principal axes and moments of inertia in atomic units:
                           1         2         3
     Eigenvalues --   183.27388 187.07056 370.34443
           X            0.97657   0.21522   0.00000
           Y           -0.21522   0.97657   0.00000
           Z            0.00000   0.00000   1.00000
 This molecule is an asymmetric top.
 Rotational symmetry number  1.
 Rotational temperatures (Kelvin)      0.47259     0.46300     0.23387
 Rotational constants (GHZ):           9.84724     9.64738     4.87314
 Zero-point vibrational energy     119626.3 (Joules/Mol)
                                   28.59137 (Kcal/Mol)
 Vibrational temperatures:    910.72   981.96  1025.66  1219.73  1263.86
          (Kelvin)           1362.53  1399.76  1444.71  1608.29  1690.99
                             1735.20  1969.01  2083.22  4769.98  5309.80

 Zero-point correction=                           0.045563 (Hartree/Particle)
 Thermal correction to Energy=                    0.049085
 Thermal correction to Enthalpy=                  0.050029
 Thermal correction to Gibbs Free Energy=         0.019364
 Sum of electronic and zero-point Energies=            -46.251260
 Sum of electronic and thermal Energies=               -46.247738
 Sum of electronic and thermal Enthalpies=             -46.246794
 Sum of electronic and thermal Free Energies=          -46.277460

                     E (Thermal)             CV                S
                      KCal/Mol        Cal/Mol-Kelvin    Cal/Mol-Kelvin
 Total                   30.801             11.812             64.541
 Electronic               0.000              0.000              0.000
 Translational            0.889              2.981             38.656
 Rotational               0.889              2.981             24.055
 Vibrational             29.024              5.851              1.830

 Normal termination of Gaussian 09 at Mon Nov 25 16:56:08 2013.
