 Gaussian 09, Revision D.01,
 Gaussian 09:  EM64L-G09RevD.01 24-Apr-2013

 -------------------------------
 #B3LYP/6-31G* opt=z-matrix freq
 -------------------------------

 -----------------------------------------------------------------
 1H-tetrazole CH2N4 casno=288948 state=1 config=1 method=8 basis=1
 -----------------------------------------------------------------
 Symbolic Z-matrix:
 Charge =  0 Multiplicity = 1

 SCF Done:  E(RB3LYP) =  -258.246267835     A.U. after   14 cycles
 SCF Done:  E(RB3LYP) =  -258.250813446     A.U. after   13 cycles
 SCF Done:  E(RB3LYP) =  -258.250892550     A.U. after   10 cycles
 SCF Done:  E(RB3LYP) =  -258.250529768     A.U. after   12 cycles
 SCF Done:  E(RB3LYP) =  -258.250903123     A.U. after    9 cycles
 SCF Done:  E(RB3LYP) =  -258.250904005     A.U. after    9 cycles
 SCF Done:  E(RB3LYP) =  -258.250903748     A.U. after    9 cycles
 SCF Done:  E(RB3LYP) =  -258.250904825     A.U. after    4 cycles
 SCF Done:  E(RB3LYP) =  -258.250856304     A.U. after   11 cycles
 SCF Done:  E(RB3LYP) =  -258.250904793     A.U. after    8 cycles
 Optimization completed.
    -- Stationary point found.
 Normal termination of Gaussian 09 at Mon Nov 25 17:40:29 2013.

 --------------------------------------------------------------------
 #N Geom=AllCheck Guess=TCheck SCRF=Check GenChk RB3LYP/6-31G(d) Freq
 --------------------------------------------------------------------

 Structure from the checkpoint file:  "/tmp/rdj3/g09-13608/Gau-27481.chk"
 -----------------------------------------------------------------
 1H-tetrazole CH2N4 casno=288948 state=1 config=1 method=8 basis=1
 -----------------------------------------------------------------
 Charge =  0 Multiplicity = 1

                         Standard orientation:
 ---------------------------------------------------------------------
 Center     Atomic      Atomic             Coordinates (Angstroms)
 Number     Number       Type             X           Y           Z
 ---------------------------------------------------------------------
      1          6           0        1.069161    0.236121    0.000000
      2          7           0        0.000000    1.055999    0.000000
      3          7           0       -1.123433    0.301067    0.000000
      4          7           0       -0.723618   -0.927623    0.000000
      5          7           0        0.640058   -1.007385    0.000000
      6          1           0        2.097719    0.564089    0.000000
      7          1           0       -0.063738    2.064781    0.000000
 ---------------------------------------------------------------------

 SCF Done:  E(RB3LYP) =  -258.250904793     A.U. after    1 cycles

 The electronic state is 1-A'.
 Alpha  occ. eigenvalues --  -14.45156 -14.41534 -14.39748 -14.36771 -10.28325
 Alpha  occ. eigenvalues --   -1.14494  -0.94940  -0.89741  -0.68357  -0.66761
 Alpha  occ. eigenvalues --   -0.60020  -0.50316  -0.49805  -0.38215  -0.33370
 Alpha  occ. eigenvalues --   -0.31240  -0.30650  -0.29314
 Alpha virt. eigenvalues --   -0.02326   0.01446   0.05213   0.10448   0.17879
 Alpha virt. eigenvalues --    0.19872   0.27865   0.32051   0.40616   0.51342
 Alpha virt. eigenvalues --    0.51687   0.59182   0.60149   0.63926   0.66177

 Mulliken charges:
               1
     1  C    0.267251
     2  N   -0.410368
     3  N   -0.042349
     4  N   -0.082049
     5  N   -0.299214
     6  H    0.200449
     7  H    0.366280
 Sum of Mulliken charges =   0.00000

 Dipole moment (field-independent basis, Debye):
    X=              2.4740    Y=              4.7287    Z=              0.0000  Tot=              5.3368
 Quadrupole moment (field-independent basis, Debye-Ang):
   XX=            -28.5816   YY=            -26.0122   ZZ=            -28.1318
   XY=              1.7767   XZ=              0.0000   YZ=              0.0000

  Exact polarizability:  37.543   1.001  37.125   0.000   0.000  15.529
 Approx polarizability:  66.113   0.278  70.387   0.000   0.000  23.966

                      1                      2                      3
                     A"                     A"                     A"
 Frequencies --    566.2863               690.7464               737.3105
 Red. masses --      1.7240                 2.0462                 8.4656
 Frc consts  --      0.3257                 0.5752                 2.7115
 IR Inten    --     91.5962                 8.3489                 7.9128

                      4                      5                      6
                     A"                     A'                     A'
 Frequencies --    848.1554               970.5846              1011.0228
 Red. masses --      1.3478                 5.0024                 6.2374
 Frc consts  --      0.5713                 2.7765                 3.7564
 IR Inten    --     17.0528                 4.2645                 0.2123

                      7                      8                      9
                     A'                     A'                     A'
 Frequencies --   1045.5808              1070.6774              1151.7300
 Red. masses --      4.9450                 3.7043                 1.8951
 Frc consts  --      3.1852                 2.5019                 1.4811
 IR Inten    --     16.9001                28.3551                15.5825

                     10                     11                     12
                     A'                     A'                     A'
 Frequencies --   1272.4468              1299.0257              1466.7055
 Red. masses --      2.2959                11.0251                 3.1743
 Frc consts  --      2.1902                10.9615                 4.0234
 IR Inten    --      3.0914                15.7225                 9.1824

                     13                     14                     15
                     A'                     A'                     A'
 Frequencies --   1516.9755              3309.1186              3652.6855
 Red. masses --      3.2085                 1.1002                 1.0836
 Frc consts  --      4.3502                 7.0982                 8.5178
 IR Inten    --     18.4832                 0.6996                79.4817

 - Thermochemistry -
 -------------------
 Temperature   298.150 Kelvin.  Pressure   1.00000 Atm.
 Atom     1 has atomic number  6 and mass  12.00000

 Molecular mass:    70.02795 amu.
 Principal axes and moments of inertia in atomic units:
                           1         2         3
     Eigenvalues --   171.95955 175.05488 347.01443
           X            0.89001   0.45594   0.00000
           Y           -0.45594   0.89001   0.00000
           Z            0.00000   0.00000   1.00000
 This molecule is an asymmetric top.
 Rotational symmetry number  1.
 Rotational temperatures (Kelvin)      0.50369     0.49478     0.24960
 Rotational constants (GHZ):          10.49515    10.30957     5.20077
 Zero-point vibrational energy     123269.5 (Joules/Mol)
                                   29.46212 (Kcal/Mol)
 Warning -- explicit consideration of   1 degrees of freedom as
           vibrations may cause significant error
 Vibrational temperatures:    814.76   993.83  1060.82  1220.30  1396.45
          (Kelvin)           1454.63  1504.36  1540.46  1657.08  1830.76
                             1869.01  2110.26  2182.59  4761.08  5255.39

 Zero-point correction=                           0.046951 (Hartree/Particle)
 Thermal correction to Energy=                    0.050433
 Thermal correction to Enthalpy=                  0.051377
 Thermal correction to Gibbs Free Energy=         0.020846
 Sum of electronic and zero-point Energies=           -258.203954
 Sum of electronic and thermal Energies=              -258.200472
 Sum of electronic and thermal Enthalpies=            -258.199527
 Sum of electronic and thermal Free Energies=         -258.230059

                     E (Thermal)             CV                S
                      KCal/Mol        Cal/Mol-Kelvin    Cal/Mol-Kelvin
 Total                   31.647             11.363             64.258
 Electronic               0.000              0.000              0.000
 Translational            0.889              2.981             38.656
 Rotational               0.889              2.981             23.861
 Vibrational             29.870              5.401              1.741
 Vibration     1          0.922              1.104              0.511

 Normal termination of Gaussian 09 at Mon Nov 25 17:40:37 2013.
