 Gaussian 09, Revision D.01,
 Gaussian 09:  EM64L-G09RevD.01 24-Apr-2013

 -------------------------------
 #B3LYP/STO-3G opt=z-matrix freq
 -------------------------------

 ------------------------------------------------------------------
 1H-tetrazole CH2N4 casno=288948 state=1 config=1 method=8 basis=20
 ------------------------------------------------------------------
 Symbolic Z-matrix:
 Charge =  0 Multiplicity = 1

 SCF Done:  E(RB3LYP) =  -254.836653032     A.U. after   14 cycles
 SCF Done:  E(RB3LYP) =  -254.889213363     A.U. after   14 cycles
 SCF Done:  E(RB3LYP) =  -254.893820547     A.U. after   14 cycles
 SCF Done:  E(RB3LYP) =  -254.894405025     A.U. after   13 cycles
 SCF Done:  E(RB3LYP) =  -254.894952459     A.U. after   13 cycles
 SCF Done:  E(RB3LYP) =  -254.894967059     A.U. after   10 cycles
 SCF Done:  E(RB3LYP) =  -254.893270632     A.U. after   12 cycles
 SCF Done:  E(RB3LYP) =  -254.894971686     A.U. after   10 cycles
 SCF Done:  E(RB3LYP) =  -254.894973390     A.U. after    9 cycles
 SCF Done:  E(RB3LYP) =  -254.894973530     A.U. after    8 cycles
 Optimization completed.
    -- Stationary point found.
 Normal termination of Gaussian 09 at Mon Nov 25 17:40:50 2013.

 ------------------------------------------------------------------
 #N Geom=AllCheck Guess=TCheck SCRF=Check GenChk RB3LYP/STO-3G Freq
 ------------------------------------------------------------------

 Structure from the checkpoint file:  "/tmp/rdj3/g09-13608/Gau-28449.chk"
 ------------------------------------------------------------------
 1H-tetrazole CH2N4 casno=288948 state=1 config=1 method=8 basis=20
 ------------------------------------------------------------------
 Charge =  0 Multiplicity = 1

                         Standard orientation:
 ---------------------------------------------------------------------
 Center     Atomic      Atomic             Coordinates (Angstroms)
 Number     Number       Type             X           Y           Z
 ---------------------------------------------------------------------
      1          6           0        1.106260    0.258036    0.000000
      2          7           0        0.000000    1.104379    0.000000
      3          7           0       -1.201794    0.313866    0.000000
      4          7           0       -0.755500   -0.988287    0.000000
      5          7           0        0.707941   -1.048017    0.000000
      6          1           0        2.142225    0.624387    0.000000
      7          1           0       -0.034318    2.153805    0.000000
 ---------------------------------------------------------------------

 SCF Done:  E(RB3LYP) =  -254.894973530     A.U. after    1 cycles

 The electronic state is 1-A'.
 Alpha  occ. eigenvalues --  -14.28290 -14.21806 -14.18981 -14.16705 -10.10962
 Alpha  occ. eigenvalues --   -1.04676  -0.87541  -0.83364  -0.61740  -0.59730
 Alpha  occ. eigenvalues --   -0.53357  -0.43040  -0.40518  -0.29477  -0.24751
 Alpha  occ. eigenvalues --   -0.23801  -0.23223  -0.21627
 Alpha virt. eigenvalues --    0.03758   0.08132   0.20658   0.23751   0.33156
 Alpha virt. eigenvalues --    0.34232   0.36345   0.50069   0.55992

 Mulliken charges:
               1
     1  C    0.073365
     2  N   -0.199272
     3  N   -0.042609
     4  N   -0.063323
     5  N   -0.152039
     6  H    0.126295
     7  H    0.257582
 Sum of Mulliken charges =   0.00000

 Dipole moment (field-independent basis, Debye):
    X=              2.1044    Y=              4.3605    Z=              0.0000  Tot=              4.8418
 Quadrupole moment (field-independent basis, Debye-Ang):
   XX=            -27.3506   YY=            -24.6856   ZZ=            -25.9454
   XY=              1.7927   XZ=              0.0000   YZ=              0.0000

  Exact polarizability:  25.226   1.255  26.119   0.000   0.000   6.269
 Approx polarizability:  57.268  -1.176  66.851   0.000   0.000   8.125

                      1                      2                      3
                     A"                     A"                     A"
 Frequencies --    455.4251               630.8027               643.4543
 Red. masses --      1.8742                 2.0460                 8.7540
 Frc consts  --      0.2290                 0.4797                 2.1355
 IR Inten    --     83.3518                15.2333                 6.8168

                      4                      5                      6
                     A"                     A'                     A'
 Frequencies --    829.3960               894.1937               945.9914
 Red. masses --      1.2530                 6.8395                 5.1523
 Frc consts  --      0.5078                 3.2221                 2.7166
 IR Inten    --     11.4802                 2.5205                 0.0320

                      7                      8                      9
                     A'                     A'                     A'
 Frequencies --   1000.6343              1011.8828              1123.3241
 Red. masses --      8.3218                 2.8656                 1.6174
 Frc consts  --      4.9093                 1.7287                 1.2025
 IR Inten    --     14.7294                16.4650                 7.1923

                     10                     11                     12
                     A'                     A'                     A'
 Frequencies --   1194.7008              1233.2073              1447.9501
 Red. masses --      7.4170                 2.8428                 3.5040
 Frc consts  --      6.2373                 2.5473                 4.3283
 IR Inten    --      0.7461                 1.7918                11.9286

                     13                     14                     15
                     A'                     A'                     A'
 Frequencies --   1489.5122              3492.8871              3711.3329
 Red. masses --      3.1311                 1.1006                 1.0867
 Frc consts  --      4.0929                 7.9111                 8.8190
 IR Inten    --     33.2144                33.5129                74.9768

 - Thermochemistry -
 -------------------
 Temperature   298.150 Kelvin.  Pressure   1.00000 Atm.
 Atom     1 has atomic number  6 and mass  12.00000

 Molecular mass:    70.02795 amu.
 Principal axes and moments of inertia in atomic units:
                           1         2         3
     Eigenvalues --   189.36403 195.44912 384.81315
           X            0.92483   0.38039   0.00000
           Y           -0.38039   0.92483   0.00000
           Z            0.00000   0.00000   1.00000
 This molecule is an asymmetric top.
 Rotational symmetry number  1.
 Rotational temperatures (Kelvin)      0.45739     0.44315     0.22508
 Rotational constants (GHZ):           9.53054     9.23382     4.68992
 Zero-point vibrational energy     120252.8 (Joules/Mol)
                                   28.74110 (Kcal/Mol)
 Warning -- explicit consideration of   1 degrees of freedom as
           vibrations may cause significant error
 Vibrational temperatures:    655.25   907.58   925.79  1193.31  1286.54
          (Kelvin)           1361.07  1439.69  1455.87  1616.21  1718.91
                             1774.31  2083.27  2143.07  5025.48  5339.77

 Zero-point correction=                           0.045802 (Hartree/Particle)
 Thermal correction to Energy=                    0.049484
 Thermal correction to Enthalpy=                  0.050428
 Thermal correction to Gibbs Free Energy=         0.019462
 Sum of electronic and zero-point Energies=           -254.849172
 Sum of electronic and thermal Energies=              -254.845490
 Sum of electronic and thermal Enthalpies=            -254.844546
 Sum of electronic and thermal Free Energies=         -254.875512

                     E (Thermal)             CV                S
                      KCal/Mol        Cal/Mol-Kelvin    Cal/Mol-Kelvin
 Total                   31.051             12.332             65.173
 Electronic               0.000              0.000              0.000
 Translational            0.889              2.981             38.656
 Rotational               0.889              2.981             24.169
 Vibrational             29.274              6.371              2.348
 Vibration     1          0.814              1.349              0.780

 Normal termination of Gaussian 09 at Mon Nov 25 17:40:52 2013.
