 Gaussian 09, Revision D.01,
 Gaussian 09:  EM64L-G09RevD.01 24-Apr-2013

 ------------------------------------
 #B3LYP/6-311G(d,p) opt=z-matrix freq
 ------------------------------------

 ------------------------------------------------------------------
 1H-tetrazole CH2N4 casno=288948 state=1 config=1 method=8 basis=21
 ------------------------------------------------------------------
 Symbolic Z-matrix:
 Charge =  0 Multiplicity = 1

 SCF Done:  E(RB3LYP) =  -258.313286967     A.U. after   14 cycles
 SCF Done:  E(RB3LYP) =  -258.316802506     A.U. after   12 cycles
 SCF Done:  E(RB3LYP) =  -258.316850348     A.U. after   11 cycles
 SCF Done:  E(RB3LYP) =  -258.316846415     A.U. after   10 cycles
 SCF Done:  E(RB3LYP) =  -258.316869290     A.U. after    7 cycles
 SCF Done:  E(RB3LYP) =  -258.316602011     A.U. after   10 cycles
 SCF Done:  E(RB3LYP) =  -258.316869268     A.U. after    7 cycles
 SCF Done:  E(RB3LYP) =  -258.316876392     A.U. after    9 cycles
 SCF Done:  E(RB3LYP) =  -258.316842776     A.U. after   10 cycles
 SCF Done:  E(RB3LYP) =  -258.310164093     A.U. after   13 cycles
 SCF Done:  E(RB3LYP) =  -258.316462190     A.U. after   12 cycles
 SCF Done:  E(RB3LYP) =  -258.316877131     A.U. after    7 cycles
 SCF Done:  E(RB3LYP) =  -258.316878095     A.U. after    8 cycles
 SCF Done:  E(RB3LYP) =  -258.316494643     A.U. after   11 cycles
 SCF Done:  E(RB3LYP) =  -258.316878172     A.U. after    7 cycles
 SCF Done:  E(RB3LYP) =  -258.316878398     A.U. after    7 cycles
 SCF Done:  E(RB3LYP) =  -258.316878138     A.U. after    8 cycles
 SCF Done:  E(RB3LYP) =  -258.316878403     A.U. after    2 cycles
 SCF Done:  E(RB3LYP) =  -258.316878480     A.U. after    7 cycles
 Optimization completed.
    -- Stationary point found.
 Normal termination of Gaussian 09 at Mon Nov 25 17:41:50 2013.

 ----------------------------------------------------------------------
 #N Geom=AllCheck Guess=TCheck SCRF=Check GenChk RB3LYP/6-311G(d,p) Fre
 q
 ----------------------------------------------------------------------

 Structure from the checkpoint file:  "/tmp/rdj3/g09-13608/Gau-29417.chk"
 ------------------------------------------------------------------
 1H-tetrazole CH2N4 casno=288948 state=1 config=1 method=8 basis=21
 ------------------------------------------------------------------
 Charge =  0 Multiplicity = 1

                         Standard orientation:
 ---------------------------------------------------------------------
 Center     Atomic      Atomic             Coordinates (Angstroms)
 Number     Number       Type             X           Y           Z
 ---------------------------------------------------------------------
      1          6           0        1.067592    0.234244    0.000000
      2          7           0        0.000000    1.054980    0.000000
      3          7           0       -1.120490    0.299320    0.000000
      4          7           0       -0.723917   -0.924436    0.000000
      5          7           0        0.639021   -1.005113    0.000000
      6          1           0        2.094351    0.559676    0.000000
      7          1           0       -0.062201    2.061599    0.000000
 ---------------------------------------------------------------------

 SCF Done:  E(RB3LYP) =  -258.316878480     A.U. after    1 cycles

 The electronic state is 1-A'.
 Alpha  occ. eigenvalues --  -14.42865 -14.39375 -14.37581 -14.34649 -10.26730
 Alpha  occ. eigenvalues --   -1.15333  -0.95484  -0.90444  -0.68783  -0.67382
 Alpha  occ. eigenvalues --   -0.60583  -0.50822  -0.50537  -0.38782  -0.34015
 Alpha  occ. eigenvalues --   -0.31967  -0.31138  -0.29854
 Alpha virt. eigenvalues --   -0.03030   0.00679   0.01486   0.05839   0.15944
 Alpha virt. eigenvalues --    0.17694   0.21488   0.26805   0.31844   0.38082
 Alpha virt. eigenvalues --    0.39050   0.42755   0.48551   0.53409   0.55128

 Mulliken charges:
               1
     1  C    0.220134
     2  N   -0.270606
     3  N   -0.030755
     4  N   -0.085076
     5  N   -0.230668
     6  H    0.142459
     7  H    0.254512
 Sum of Mulliken charges =   0.00000

 Dipole moment (field-independent basis, Debye):
    X=              2.4844    Y=              4.7563    Z=              0.0000  Tot=              5.3660
 Quadrupole moment (field-independent basis, Debye-Ang):
   XX=            -28.9530   YY=            -26.4978   ZZ=            -28.2800
   XY=              1.8152   XZ=              0.0000   YZ=              0.0000

  Exact polarizability:  38.960   1.016  38.521   0.000   0.000  17.686
 Approx polarizability:  67.260   0.544  71.719   0.000   0.000  26.747

                      1                      2                      3
                     A"                     A"                     A"
 Frequencies --    598.4648               694.2434               739.6920
 Red. masses --      1.8392                 1.8855                 7.9323
 Frc consts  --      0.3881                 0.5354                 2.5571
 IR Inten    --     83.7568                10.9586                 9.3052

                      4                      5                      6
                     A"                     A'                     A'
 Frequencies --    866.6254               962.9009              1013.1600
 Red. masses --      1.3725                 5.4078                 5.7799
 Frc consts  --      0.6073                 2.9542                 3.4956
 IR Inten    --     17.5106                 5.3965                 0.2622

                      7                      8                      9
                     A'                     A'                     A'
 Frequencies --   1029.3349              1063.8876              1143.7056
 Red. masses --      5.4032                 3.1595                 2.0862
 Frc consts  --      3.3730                 2.1070                 1.6078
 IR Inten    --     17.5049                26.4514                18.2415

                     10                     11                     12
                     A'                     A'                     A'
 Frequencies --   1264.1671              1294.9001              1452.1752
 Red. masses --      2.2868                10.1924                 3.1778
 Frc consts  --      2.1532                10.0693                 3.9483
 IR Inten    --      2.3057                16.5074                 8.7931

                     13                     14                     15
                     A'                     A'                     A'
 Frequencies --   1509.9012              3277.7560              3650.4470
 Red. masses --      3.0824                 1.1006                 1.0836
 Frc consts  --      4.1404                 6.9666                 8.5079
 IR Inten    --     17.1297                 1.2622                90.9906

 - Thermochemistry -
 -------------------
 Temperature   298.150 Kelvin.  Pressure   1.00000 Atm.
 Atom     1 has atomic number  6 and mass  12.00000

 Molecular mass:    70.02795 amu.
 Principal axes and moments of inertia in atomic units:
                           1         2         3
     Eigenvalues --   171.24572 174.41442 345.66014
           X            0.90515   0.42509   0.00000
           Y           -0.42509   0.90515   0.00000
           Z            0.00000   0.00000   1.00000
 This molecule is an asymmetric top.
 Rotational symmetry number  1.
 Rotational temperatures (Kelvin)      0.50579     0.49660     0.25058
 Rotational constants (GHZ):          10.53890    10.34743     5.22114
 Zero-point vibrational energy     122984.3 (Joules/Mol)
                                   29.39394 (Kcal/Mol)
 Warning -- explicit consideration of   1 degrees of freedom as
           vibrations may cause significant error
 Vibrational temperatures:    861.06   998.86  1064.25  1246.88  1385.40
          (Kelvin)           1457.71  1480.98  1530.70  1645.54  1818.85
                             1863.07  2089.35  2172.41  4715.95  5252.17

 Zero-point correction=                           0.046842 (Hartree/Particle)
 Thermal correction to Energy=                    0.050305
 Thermal correction to Enthalpy=                  0.051249
 Thermal correction to Gibbs Free Energy=         0.020754
 Sum of electronic and zero-point Energies=           -258.270036
 Sum of electronic and thermal Energies=              -258.266574
 Sum of electronic and thermal Enthalpies=            -258.265630
 Sum of electronic and thermal Free Energies=         -258.296125

                     E (Thermal)             CV                S
                      KCal/Mol        Cal/Mol-Kelvin    Cal/Mol-Kelvin
 Total                   31.567             11.303             64.183
 Electronic               0.000              0.000              0.000
 Translational            0.889              2.981             38.656
 Rotational               0.889              2.981             23.850
 Vibrational             29.789              5.342              1.677
 Vibration     1          0.956              1.035              0.452

 Normal termination of Gaussian 09 at Mon Nov 25 17:42:03 2013.
