 Gaussian 09, Revision D.01,
 Gaussian 09:  EM64L-G09RevD.01 24-Apr-2013

 -----------------------------
 #B3LYP/TZVP opt=z-matrix freq
 -----------------------------

 ------------------------------------------------------------------
 1H-tetrazole CH2N4 casno=288948 state=1 config=1 method=8 basis=32
 ------------------------------------------------------------------
 Symbolic Z-matrix:
 Charge =  0 Multiplicity = 1

 SCF Done:  E(RB3LYP) =  -258.333326223     A.U. after   14 cycles
 SCF Done:  E(RB3LYP) =  -258.336467044     A.U. after   12 cycles
 SCF Done:  E(RB3LYP) =  -258.336489784     A.U. after   11 cycles
 SCF Done:  E(RB3LYP) =  -258.336530441     A.U. after   10 cycles
 SCF Done:  E(RB3LYP) =  -258.335702357     A.U. after   11 cycles
 SCF Done:  E(RB3LYP) =  -258.336548843     A.U. after    8 cycles
 SCF Done:  E(RB3LYP) =  -258.336550990     A.U. after    8 cycles
 SCF Done:  E(RB3LYP) =  -258.336425359     A.U. after   11 cycles
 SCF Done:  E(RB3LYP) =  -258.336552196     A.U. after    9 cycles
 SCF Done:  E(RB3LYP) =  -258.336552347     A.U. after    7 cycles
 SCF Done:  E(RB3LYP) =  -258.336552185     A.U. after    7 cycles
 SCF Done:  E(RB3LYP) =  -258.336552384     A.U. after    7 cycles
 SCF Done:  E(RB3LYP) =  -258.336550298     A.U. after    9 cycles
 SCF Done:  E(RB3LYP) =  -258.336552393     A.U. after    8 cycles
 SCF Done:  E(RB3LYP) =  -258.336552099     A.U. after    9 cycles
 SCF Done:  E(RB3LYP) =  -258.336552268     A.U. after    6 cycles
 SCF Done:  E(RB3LYP) =  -258.336551975     A.U. after    9 cycles
 SCF Done:  E(RB3LYP) =  -258.336552381     A.U. after    4 cycles
 Optimization completed.
    -- Stationary point found.
 Normal termination of Gaussian 09 at Mon Nov 25 17:43:32 2013.

 ----------------------------------------------------------------
 #N Geom=AllCheck Guess=TCheck SCRF=Check GenChk RB3LYP/TZVP Freq
 ----------------------------------------------------------------

 Structure from the checkpoint file:  "/tmp/rdj3/g09-13608/Gau-439.chk"
 ------------------------------------------------------------------
 1H-tetrazole CH2N4 casno=288948 state=1 config=1 method=8 basis=32
 ------------------------------------------------------------------
 Charge =  0 Multiplicity = 1

                         Standard orientation:
 ---------------------------------------------------------------------
 Center     Atomic      Atomic             Coordinates (Angstroms)
 Number     Number       Type             X           Y           Z
 ---------------------------------------------------------------------
      1          6           0        1.066440    0.235397    0.000000
      2          7           0        0.000000    1.054207    0.000000
      3          7           0       -1.119689    0.297353    0.000000
      4          7           0       -0.723383   -0.924499    0.000000
      5          7           0        0.639052   -1.002969    0.000000
      6          1           0        2.092942    0.558838    0.000000
      7          1           0       -0.063449    2.060136    0.000000
 ---------------------------------------------------------------------

 SCF Done:  E(RB3LYP) =  -258.336552381     A.U. after    1 cycles

 The electronic state is 1-A'.
 Alpha  occ. eigenvalues --  -14.43817 -14.40512 -14.38752 -14.35752 -10.27416
 Alpha  occ. eigenvalues --   -1.16116  -0.96126  -0.91133  -0.69360  -0.68024
 Alpha  occ. eigenvalues --   -0.61176  -0.51373  -0.51130  -0.39421  -0.34623
 Alpha  occ. eigenvalues --   -0.32580  -0.31756  -0.30476
 Alpha virt. eigenvalues --   -0.03734  -0.00106   0.00527   0.05881   0.10881
 Alpha virt. eigenvalues --    0.11846   0.14917   0.19280   0.22082   0.25865
 Alpha virt. eigenvalues --    0.27491   0.31113   0.33057   0.34002   0.35493

 Mulliken charges:
               1
     1  C   -0.084767
     2  N   -0.106521
     3  N   -0.070919
     4  N   -0.077756
     5  N   -0.070674
     6  H    0.143178
     7  H    0.267460
 Sum of Mulliken charges =   0.00000

 Dipole moment (field-independent basis, Debye):
    X=              2.5636    Y=              4.8716    Z=              0.0000  Tot=              5.5049
 Quadrupole moment (field-independent basis, Debye-Ang):
   XX=            -29.4394   YY=            -26.9211   ZZ=            -28.6066
   XY=              1.8927   XZ=              0.0000   YZ=              0.0000

  Exact polarizability:  41.858   0.742  41.485   0.000   0.000  22.041
 Approx polarizability:  69.166   0.291  73.711   0.000   0.000  32.341

                      1                      2                      3
                     A"                     A"                     A"
 Frequencies --    574.2267               691.4093               733.7568
 Red. masses --      2.0100                 1.8359                 7.5471
 Frc consts  --      0.3905                 0.5171                 2.3941
 IR Inten    --     73.7589                14.1498                 9.5321

                      4                      5                      6
                     A"                     A'                     A'
 Frequencies --    847.8966               954.6220              1010.9243
 Red. masses --      1.3261                 6.2197                 5.4869
 Frc consts  --      0.5617                 3.3395                 3.3038
 IR Inten    --     24.0596                 6.5131                 1.4602

                      7                      8                      9
                     A'                     A'                     A'
 Frequencies --   1016.4876              1061.1243              1145.0043
 Red. masses --      6.1836                 3.2462                 2.0393
 Frc consts  --      3.7644                 2.1536                 1.5752
 IR Inten    --     16.5872                26.5789                18.4321

                     10                     11                     12
                     A'                     A'                     A'
 Frequencies --   1264.5354              1286.8419              1448.8198
 Red. masses --      2.1762                10.9505                 3.0223
 Frc consts  --      2.0503                10.6840                 3.7378
 IR Inten    --      4.5653                15.2753                 9.2412

                     13                     14                     15
                     A'                     A'                     A'
 Frequencies --   1507.2278              3283.4668              3645.4199
 Red. masses --      3.0426                 1.1007                 1.0837
 Frc consts  --      4.0724                 6.9920                 8.4851
 IR Inten    --     17.9632                 2.0714                97.3173

 - Thermochemistry -
 -------------------
 Temperature   298.150 Kelvin.  Pressure   1.00000 Atm.
 Atom     1 has atomic number  6 and mass  12.00000

 Molecular mass:    70.02795 amu.
 Principal axes and moments of inertia in atomic units:
                           1         2         3
     Eigenvalues --   171.05043 174.00679 345.05722
           X            0.92681   0.37553   0.00000
           Y           -0.37553   0.92681   0.00000
           Z            0.00000   0.00000   1.00000
 This molecule is an asymmetric top.
 Rotational symmetry number  1.
 Rotational temperatures (Kelvin)      0.50636     0.49776     0.25101
 Rotational constants (GHZ):          10.55093    10.37167     5.23027
 Zero-point vibrational energy     122448.3 (Joules/Mol)
                                   29.26586 (Kcal/Mol)
 Warning -- explicit consideration of   1 degrees of freedom as
           vibrations may cause significant error
 Vibrational temperatures:    826.18   994.78  1055.71  1219.93  1373.49
          (Kelvin)           1454.49  1462.50  1526.72  1647.40  1819.38
                             1851.48  2084.53  2168.56  4724.17  5244.94

 Zero-point correction=                           0.046638 (Hartree/Particle)
 Thermal correction to Energy=                    0.050126
 Thermal correction to Enthalpy=                  0.051070
 Thermal correction to Gibbs Free Energy=         0.020541
 Sum of electronic and zero-point Energies=           -258.289914
 Sum of electronic and thermal Energies=              -258.286426
 Sum of electronic and thermal Enthalpies=            -258.285482
 Sum of electronic and thermal Free Energies=         -258.316011

                     E (Thermal)             CV                S
                      KCal/Mol        Cal/Mol-Kelvin    Cal/Mol-Kelvin
 Total                   31.455             11.432             64.254
 Electronic               0.000              0.000              0.000
 Translational            0.889              2.981             38.656
 Rotational               0.889              2.981             23.844
 Vibrational             29.677              5.470              1.754
 Vibration     1          0.931              1.087              0.496

 Normal termination of Gaussian 09 at Mon Nov 25 17:43:46 2013.
