 Gaussian 09, Revision D.01,
 Gaussian 09:  EM64L-G09RevD.01 24-Apr-2013

 --------------------------------
 #B3LYP/6-31G** opt=z-matrix freq
 --------------------------------

 -----------------------------------------------------------------
 1H-tetrazole CH2N4 casno=288948 state=1 config=1 method=8 basis=3
 -----------------------------------------------------------------
 Symbolic Z-matrix:
 Charge =  0 Multiplicity = 1

 SCF Done:  E(RB3LYP) =  -258.251387145     A.U. after   14 cycles
 SCF Done:  E(RB3LYP) =  -258.255864987     A.U. after   12 cycles
 SCF Done:  E(RB3LYP) =  -258.255943210     A.U. after   11 cycles
 SCF Done:  E(RB3LYP) =  -258.255664403     A.U. after   11 cycles
 SCF Done:  E(RB3LYP) =  -258.255953885     A.U. after    9 cycles
 SCF Done:  E(RB3LYP) =  -258.255954884     A.U. after    8 cycles
 SCF Done:  E(RB3LYP) =  -258.255954970     A.U. after    8 cycles
 SCF Done:  E(RB3LYP) =  -258.255801079     A.U. after   11 cycles
 SCF Done:  E(RB3LYP) =  -258.255955313     A.U. after    8 cycles
 SCF Done:  E(RB3LYP) =  -258.255955304     A.U. after    8 cycles
 SCF Done:  E(RB3LYP) =  -258.255955384     A.U. after    6 cycles
 SCF Done:  E(RB3LYP) =  -258.255955163     A.U. after    9 cycles
 SCF Done:  E(RB3LYP) =  -258.255955397     A.U. after    5 cycles
 SCF Done:  E(RB3LYP) =  -258.255954321     A.U. after    9 cycles
 SCF Done:  E(RB3LYP) =  -258.247593117     A.U. after   13 cycles
 SCF Done:  E(RB3LYP) =  -258.254111731     A.U. after   14 cycles
 SCF Done:  E(RB3LYP) =  -258.252500391     A.U. after   13 cycles
 SCF Done:  E(RB3LYP) =  -258.253710162     A.U. after   13 cycles
 SCF Done:  E(RB3LYP) =  -258.255955397     A.U. after    8 cycles
 Optimization completed.
    -- Stationary point found.
 Normal termination of Gaussian 09 at Mon Nov 25 17:44:31 2013.

 ----------------------------------------------------------------------
 #N Geom=AllCheck Guess=TCheck SCRF=Check GenChk RB3LYP/6-31G(d,p) Freq
 ----------------------------------------------------------------------

 Structure from the checkpoint file:  "/tmp/rdj3/g09-13608/Gau-2106.chk"
 -----------------------------------------------------------------
 1H-tetrazole CH2N4 casno=288948 state=1 config=1 method=8 basis=3
 -----------------------------------------------------------------
 Charge =  0 Multiplicity = 1

                         Standard orientation:
 ---------------------------------------------------------------------
 Center     Atomic      Atomic             Coordinates (Angstroms)
 Number     Number       Type             X           Y           Z
 ---------------------------------------------------------------------
      1          6           0        1.069014    0.236040    0.000000
      2          7           0        0.000000    1.056172    0.000000
      3          7           0       -1.123356    0.301020    0.000000
      4          7           0       -0.723674   -0.927309    0.000000
      5          7           0        0.639815   -1.007574    0.000000
      6          1           0        2.097203    0.563584    0.000000
      7          1           0       -0.060785    2.064009    0.000000
 ---------------------------------------------------------------------

 SCF Done:  E(RB3LYP) =  -258.255955397     A.U. after    1 cycles

 The electronic state is 1-A'.
 Alpha  occ. eigenvalues --  -14.45145 -14.41544 -14.39756 -14.36785 -10.28326
 Alpha  occ. eigenvalues --   -1.14487  -0.94924  -0.89741  -0.68282  -0.66748
 Alpha  occ. eigenvalues --   -0.59930  -0.50234  -0.49818  -0.38200  -0.33396
 Alpha  occ. eigenvalues --   -0.31253  -0.30648  -0.29316
 Alpha virt. eigenvalues --   -0.02391   0.01399   0.05318   0.10487   0.17818
 Alpha virt. eigenvalues --    0.19769   0.27784   0.32058   0.40554   0.50870
 Alpha virt. eigenvalues --    0.51697   0.59091   0.60175   0.63449   0.66042

 Mulliken charges:
               1
     1  C    0.322433
     2  N   -0.339380
     3  N   -0.051505
     4  N   -0.082339
     5  N   -0.307302
     6  H    0.158638
     7  H    0.299454
 Sum of Mulliken charges =   0.00000

 Dipole moment (field-independent basis, Debye):
    X=              2.4737    Y=              4.7212    Z=              0.0000  Tot=              5.3300
 Quadrupole moment (field-independent basis, Debye-Ang):
   XX=            -28.5854   YY=            -26.0261   ZZ=            -28.1010
   XY=              1.7808   XZ=              0.0000   YZ=              0.0000

  Exact polarizability:  37.695   1.027  37.299   0.000   0.000  15.652
 Approx polarizability:  66.404   0.335  70.769   0.000   0.000  24.200

                      1                      2                      3
                     A"                     A"                     A"
 Frequencies --    576.9070               690.0590               737.0139
 Red. masses --      1.7425                 2.0148                 8.3426
 Frc consts  --      0.3417                 0.5653                 2.6699
 IR Inten    --     87.6002                 8.8840                 8.2629

                      4                      5                      6
                     A"                     A'                     A'
 Frequencies --    853.4717               970.4358              1009.1324
 Red. masses --      1.3535                 4.9291                 6.0348
 Frc consts  --      0.5809                 2.7349                 3.6209
 IR Inten    --     16.3332                 4.0580                 0.2945

                      7                      8                      9
                     A'                     A'                     A'
 Frequencies --   1043.8249              1068.5009              1149.7545
 Red. masses --      4.9642                 3.6003                 1.9299
 Frc consts  --      3.1868                 2.4218                 1.5031
 IR Inten    --     17.3246                27.9715                15.8170

                     10                     11                     12
                     A'                     A'                     A'
 Frequencies --   1270.2857              1300.1717              1464.2825
 Red. masses --      2.2915                10.7821                 3.1632
 Frc consts  --      2.1786                10.7388                 3.9960
 IR Inten    --      2.7562                16.2410                 9.2564

                     13                     14                     15
                     A'                     A'                     A'
 Frequencies --   1514.5065              3299.8947              3665.0233
 Red. masses --      3.3105                 1.1003                 1.0837
 Frc consts  --      4.4739                 7.0592                 8.5767
 IR Inten    --     17.6952                 1.0118                86.0607

 - Thermochemistry -
 -------------------
 Temperature   298.150 Kelvin.  Pressure   1.00000 Atm.
 Atom     1 has atomic number  6 and mass  12.00000

 Molecular mass:    70.02795 amu.
 Principal axes and moments of inertia in atomic units:
                           1         2         3
     Eigenvalues --   171.95478 175.00839 346.96317
           X            0.88901   0.45788   0.00000
           Y           -0.45788   0.88901   0.00000
           Z            0.00000   0.00000   1.00000
 This molecule is an asymmetric top.
 Rotational symmetry number  1.
 Rotational temperatures (Kelvin)      0.50370     0.49491     0.24963
 Rotational constants (GHZ):          10.49544    10.31231     5.20154
 Zero-point vibrational energy     123294.7 (Joules/Mol)
                                   29.46814 (Kcal/Mol)
 Warning -- explicit consideration of   1 degrees of freedom as
           vibrations may cause significant error
 Vibrational temperatures:    830.04   992.84  1060.40  1227.95  1396.24
          (Kelvin)           1451.91  1501.83  1537.33  1654.24  1827.66
                             1870.65  2106.77  2179.03  4747.81  5273.14

 Zero-point correction=                           0.046960 (Hartree/Particle)
 Thermal correction to Energy=                    0.050437
 Thermal correction to Enthalpy=                  0.051381
 Thermal correction to Gibbs Free Energy=         0.020859
 Sum of electronic and zero-point Energies=           -258.208995
 Sum of electronic and thermal Energies=              -258.205519
 Sum of electronic and thermal Enthalpies=            -258.204575
 Sum of electronic and thermal Free Energies=         -258.235096

                     E (Thermal)             CV                S
                      KCal/Mol        Cal/Mol-Kelvin    Cal/Mol-Kelvin
 Total                   31.649             11.343             64.238
 Electronic               0.000              0.000              0.000
 Translational            0.889              2.981             38.656
 Rotational               0.889              2.981             23.861
 Vibrational             29.872              5.381              1.721
 Vibration     1          0.933              1.081              0.491

 Normal termination of Gaussian 09 at Mon Nov 25 17:44:39 2013.
