 Gaussian 09, Revision D.01,
 Gaussian 09:  EM64L-G09RevD.01 24-Apr-2013

 ---------------------------------
 #B3LYP/6-31+G** opt=z-matrix freq
 ---------------------------------

 -----------------------------------------------------------------
 1H-tetrazole CH2N4 casno=288948 state=1 config=1 method=8 basis=4
 -----------------------------------------------------------------
 Symbolic Z-matrix:
 Charge =  0 Multiplicity = 1

 SCF Done:  E(RB3LYP) =  -258.263466188     A.U. after   12 cycles
 SCF Done:  E(RB3LYP) =  -258.267946670     A.U. after   11 cycles
 SCF Done:  E(RB3LYP) =  -258.268018045     A.U. after   11 cycles
 SCF Done:  E(RB3LYP) =  -258.267426461     A.U. after   11 cycles
 SCF Done:  E(RB3LYP) =  -258.268043633     A.U. after    9 cycles
 SCF Done:  E(RB3LYP) =  -258.268047497     A.U. after    9 cycles
 SCF Done:  E(RB3LYP) =  -258.268049096     A.U. after    9 cycles
 SCF Done:  E(RB3LYP) =  -258.267799308     A.U. after   11 cycles
 SCF Done:  E(RB3LYP) =  -258.268049635     A.U. after    9 cycles
 SCF Done:  E(RB3LYP) =  -258.268049961     A.U. after    8 cycles
 SCF Done:  E(RB3LYP) =  -258.268049387     A.U. after    9 cycles
 SCF Done:  E(RB3LYP) =  -258.268049993     A.U. after    5 cycles
 SCF Done:  E(RB3LYP) =  -258.268049979     A.U. after    8 cycles
 SCF Done:  E(RB3LYP) =  -258.268050021     A.U. after    7 cycles
 SCF Done:  E(RB3LYP) =  -258.268049065     A.U. after    9 cycles
 SCF Done:  E(RB3LYP) =  -258.258888989     A.U. after   12 cycles
 SCF Done:  E(RB3LYP) =  -258.268050023     A.U. after    4 cycles
 SCF Done:  E(RB3LYP) =  -258.267841913     A.U. after   10 cycles
 SCF Done:  E(RB3LYP) =  -258.268050020     A.U. after    3 cycles
 Optimization completed.
    -- Stationary point found.
 Normal termination of Gaussian 09 at Mon Nov 25 17:45:40 2013.

 ----------------------------------------------------------------------
 #N Geom=AllCheck Guess=TCheck SCRF=Check GenChk RB3LYP/6-31+G(d,p) Fre
 q
 ----------------------------------------------------------------------

 Structure from the checkpoint file:  "/tmp/rdj3/g09-13608/Gau-3792.chk"
 -----------------------------------------------------------------
 1H-tetrazole CH2N4 casno=288948 state=1 config=1 method=8 basis=4
 -----------------------------------------------------------------
 Charge =  0 Multiplicity = 1

                         Standard orientation:
 ---------------------------------------------------------------------
 Center     Atomic      Atomic             Coordinates (Angstroms)
 Number     Number       Type             X           Y           Z
 ---------------------------------------------------------------------
      1          6           0        1.069927    0.236713    0.000000
      2          7           0        0.000000    1.056631    0.000000
      3          7           0       -1.122408    0.300656    0.000000
      4          7           0       -0.723918   -0.928031    0.000000
      5          7           0        0.638261   -1.007320    0.000000
      6          1           0        2.099154    0.561042    0.000000
      7          1           0       -0.062261    2.065123    0.000000
 ---------------------------------------------------------------------

 SCF Done:  E(RB3LYP) =  -258.268050020     A.U. after    1 cycles

 The electronic state is 1-A'.
 Alpha  occ. eigenvalues --  -14.46379 -14.43021 -14.41282 -14.38333 -10.29459
 Alpha  occ. eigenvalues --   -1.15931  -0.96266  -0.91062  -0.69500  -0.68010
 Alpha  occ. eigenvalues --   -0.61076  -0.51400  -0.51051  -0.39535  -0.34703
 Alpha  occ. eigenvalues --   -0.32503  -0.32044  -0.30718
 Alpha virt. eigenvalues --   -0.04001  -0.01856  -0.00552   0.01857   0.03988
 Alpha virt. eigenvalues --    0.05082   0.06930   0.08590   0.10620   0.12463
 Alpha virt. eigenvalues --    0.13858   0.14532   0.16296   0.17661   0.17730

 Mulliken charges:
               1
     1  C    0.059725
     2  N   -0.275847
     3  N   -0.021177
     4  N   -0.020205
     5  N   -0.253909
     6  H    0.178954
     7  H    0.332459
 Sum of Mulliken charges =   0.00000

 Dipole moment (field-independent basis, Debye):
    X=              2.6281    Y=              4.9008    Z=              0.0000  Tot=              5.5610
 Quadrupole moment (field-independent basis, Debye-Ang):
   XX=            -29.5721   YY=            -27.0099   ZZ=            -28.9542
   XY=              1.9513   XZ=              0.0000   YZ=              0.0000

  Exact polarizability:  44.173   0.388  43.848   0.000   0.000  24.262
 Approx polarizability:  71.795  -0.059  76.143   0.000   0.000  34.899

                      1                      2                      3
                     A"                     A"                     A"
 Frequencies --    574.0312               685.7082               731.2737
 Red. masses --      1.7926                 1.9491                 8.6061
 Frc consts  --      0.3480                 0.5400                 2.7115
 IR Inten    --     85.9100                10.1884                 8.0069

                      4                      5                      6
                     A"                     A'                     A'
 Frequencies --    851.3521               968.9513              1008.5975
 Red. masses --      1.3483                 4.9645                 6.6880
 Frc consts  --      0.5758                 2.7462                 4.0085
 IR Inten    --     21.9579                 4.3542                 0.1817

                      7                      8                      9
                     A'                     A'                     A'
 Frequencies --   1043.3199              1068.1465              1145.3572
 Red. masses --      4.6822                 3.7314                 1.9039
 Frc consts  --      3.0029                 2.5083                 1.4715
 IR Inten    --     17.1339                29.6778                16.0132

                     10                     11                     12
                     A'                     A'                     A'
 Frequencies --   1268.3357              1297.1279              1458.4493
 Red. masses --      2.2896                10.7664                 3.1644
 Frc consts  --      2.1701                10.6730                 3.9658
 IR Inten    --      2.5799                17.2324                10.0313

                     13                     14                     15
                     A'                     A'                     A'
 Frequencies --   1510.3524              3301.1763              3660.8130
 Red. masses --      3.2225                 1.1006                 1.0840
 Frc consts  --      4.3312                 7.0669                 8.5595
 IR Inten    --     18.1008                 2.1970                98.6094

 - Thermochemistry -
 -------------------
 Temperature   298.150 Kelvin.  Pressure   1.00000 Atm.
 Atom     1 has atomic number  6 and mass  12.00000

 Molecular mass:    70.02795 amu.
 Principal axes and moments of inertia in atomic units:
                           1         2         3
     Eigenvalues --   172.15747 174.83049 346.98796
           X            0.89399   0.44808   0.00000
           Y           -0.44808   0.89399   0.00000
           Z            0.00000   0.00000   1.00000
 This molecule is an asymmetric top.
 Rotational symmetry number  1.
 Rotational temperatures (Kelvin)      0.50311     0.49542     0.24962
 Rotational constants (GHZ):          10.48308    10.32281     5.20116
 Zero-point vibrational energy     123053.8 (Joules/Mol)
                                   29.41057 (Kcal/Mol)
 Warning -- explicit consideration of   1 degrees of freedom as
           vibrations may cause significant error
 Vibrational temperatures:    825.90   986.58  1052.14  1224.90  1394.10
          (Kelvin)           1451.15  1501.10  1536.82  1647.91  1824.85
                             1866.28  2098.38  2173.06  4749.65  5267.09

 Zero-point correction=                           0.046869 (Hartree/Particle)
 Thermal correction to Energy=                    0.050352
 Thermal correction to Enthalpy=                  0.051296
 Thermal correction to Gibbs Free Energy=         0.020765
 Sum of electronic and zero-point Energies=           -258.221181
 Sum of electronic and thermal Energies=              -258.217698
 Sum of electronic and thermal Enthalpies=            -258.216754
 Sum of electronic and thermal Free Energies=         -258.247285

                     E (Thermal)             CV                S
                      KCal/Mol        Cal/Mol-Kelvin    Cal/Mol-Kelvin
 Total                   31.596             11.383             64.259
 Electronic               0.000              0.000              0.000
 Translational            0.889              2.981             38.656
 Rotational               0.889              2.981             23.861
 Vibrational             29.819              5.422              1.742
 Vibration     1          0.930              1.087              0.497

 Normal termination of Gaussian 09 at Mon Nov 25 17:45:53 2013.
