 Gaussian 09, Revision D.01,
 Gaussian 09:  EM64L-G09RevD.01 24-Apr-2013

 -----------------------
 #B3LYP/cc-pVDZ opt freq
 -----------------------

 -----------------------------------------------------------------
 1H-tetrazole CH2N4 casno=288948 state=1 config=1 method=8 basis=5
 -----------------------------------------------------------------
 Symbolic Z-matrix:
 Charge =  0 Multiplicity = 1

 SCF Done:  E(RB3LYP) =  -258.267309737     A.U. after   14 cycles
 SCF Done:  E(RB3LYP) =  -258.272032947     A.U. after   12 cycles
 SCF Done:  E(RB3LYP) =  -258.272097995     A.U. after   10 cycles
 SCF Done:  E(RB3LYP) =  -258.272108230     A.U. after    9 cycles
 SCF Done:  E(RB3LYP) =  -258.272111896     A.U. after    9 cycles
 Optimization completed.
    -- Stationary point found.
 Normal termination of Gaussian 09 at Mon Dec 16 14:26:30 2013.

 -------------------------------------------------------------------
 #N Geom=AllCheck Guess=TCheck SCRF=Check GenChk RB3LYP/CC-pVDZ Freq
 -------------------------------------------------------------------

 Structure from the checkpoint file:  "/tmp/rdj3/g09-16160/Gau-18964.chk"
 -----------------------------------------------------------------
 1H-tetrazole CH2N4 casno=288948 state=1 config=1 method=8 basis=5
 -----------------------------------------------------------------
 Charge =  0 Multiplicity = 1

                         Standard orientation:
 ---------------------------------------------------------------------
 Center     Atomic      Atomic             Coordinates (Angstroms)
 Number     Number       Type             X           Y           Z
 ---------------------------------------------------------------------
      1          6           0        1.069185    0.233120    0.000000
      2          7           0        0.000000    1.057114    0.000000
      3          7           0       -1.121514    0.303123    0.000000
      4          7           0       -0.725334   -0.925171    0.000000
      5          7           0        0.637980   -1.010907    0.000000
      6          1           0        2.104317    0.562607    0.000000
      7          1           0       -0.057353    2.069564    0.000000
 ---------------------------------------------------------------------

 SCF Done:  E(RB3LYP) =  -258.272111896     A.U. after    1 cycles

 The electronic state is 1-A'.
 Alpha  occ. eigenvalues --  -14.44226 -14.40526 -14.38732 -14.35995 -10.27974
 Alpha  occ. eigenvalues --   -1.14434  -0.94805  -0.89603  -0.67998  -0.66605
 Alpha  occ. eigenvalues --   -0.59625  -0.49942  -0.49728  -0.37975  -0.33257
 Alpha  occ. eigenvalues --   -0.31139  -0.30423  -0.29121
 Alpha virt. eigenvalues --   -0.02266   0.01430   0.03057   0.07518   0.17504
 Alpha virt. eigenvalues --    0.18975   0.26084   0.28843   0.37487   0.43126
 Alpha virt. eigenvalues --    0.45332   0.53344   0.56332   0.57461   0.65055

 Mulliken charges:
               1
     1  C    0.195156
     2  N   -0.029353
     3  N   -0.070501
     4  N   -0.087622
     5  N   -0.173818
     6  H    0.047165
     7  H    0.118972
 Sum of Mulliken charges =   0.00000

 Dipole moment (field-independent basis, Debye):
    X=              2.3679    Y=              4.6162    Z=              0.0000  Tot=              5.1881
 Quadrupole moment (field-independent basis, Debye-Ang):
   XX=            -28.6187   YY=            -26.0158   ZZ=            -27.9108
   XY=              1.7167   XZ=              0.0000   YZ=              0.0000

  Exact polarizability:  37.932   1.142  37.167   0.000   0.000  16.052
 Approx polarizability:  66.856   0.631  70.802   0.000   0.000  24.766

                      1                      2                      3
                     A"                     A"                     A"
 Frequencies --    575.2233               690.2527               740.2681
 Red. masses --      1.7057                 2.0431                 8.0550
 Frc consts  --      0.3325                 0.5735                 2.6007
 IR Inten    --     75.2727                 6.3892                 8.0327

                      4                      5                      6
                     A"                     A'                     A'
 Frequencies --    853.3581               966.3060              1008.1463
 Red. masses --      1.3734                 4.2905                 5.5547
 Frc consts  --      0.5893                 2.3604                 3.3263
 IR Inten    --     16.4390                 3.8658                 0.4361

                      7                      8                      9
                     A'                     A'                     A'
 Frequencies --   1042.6482              1060.5047              1137.6034
 Red. masses --      4.5250                 3.0731                 2.1564
 Frc consts  --      2.8983                 2.0363                 1.6443
 IR Inten    --     19.0969                26.6888                16.6523

                     10                     11                     12
                     A'                     A'                     A'
 Frequencies --   1256.8977              1301.9986              1454.0570
 Red. masses --      2.3637                10.3709                 3.2730
 Frc consts  --      2.2001                10.3583                 4.0771
 IR Inten    --      2.2976                15.1452                 8.0690

                     13                     14                     15
                     A'                     A'                     A'
 Frequencies --   1504.9371              3283.4624              3627.3578
 Red. masses --      3.7604                 1.1010                 1.0845
 Frc consts  --      5.0179                 6.9939                 8.4078
 IR Inten    --     14.0788                 1.5033                88.5816

 - Thermochemistry -
 -------------------
 Temperature   298.150 Kelvin.  Pressure   1.00000 Atm.
 Atom     1 has atomic number  6 and mass  12.00000

 Molecular mass:    70.02795 amu.
 Principal axes and moments of inertia in atomic units:
                           1         2         3
     Eigenvalues --   171.99611 175.20323 347.19933
           X            0.84464   0.53533   0.00000
           Y           -0.53533   0.84464   0.00000
           Z            0.00000   0.00000   1.00000
 This molecule is an asymmetric top.
 Rotational symmetry number  1.
 Rotational temperatures (Kelvin)      0.50358     0.49436     0.24946
 Rotational constants (GHZ):          10.49292    10.30084     5.19800
 Zero-point vibrational energy     122635.3 (Joules/Mol)
                                   29.31054 (Kcal/Mol)
 Warning -- explicit consideration of   1 degrees of freedom as
           vibrations may cause significant error
 Vibrational temperatures:    827.62   993.12  1065.08  1227.79  1390.30
          (Kelvin)           1450.50  1500.14  1525.83  1636.76  1808.39
                             1873.28  2092.06  2165.27  4724.16  5218.95

 Zero-point correction=                           0.046709 (Hartree/Particle)
 Thermal correction to Energy=                    0.050189
 Thermal correction to Enthalpy=                  0.051133
 Thermal correction to Gibbs Free Energy=         0.020606
 Sum of electronic and zero-point Energies=           -258.225403
 Sum of electronic and thermal Energies=              -258.221923
 Sum of electronic and thermal Enthalpies=            -258.220979
 Sum of electronic and thermal Free Energies=         -258.251506

                     E (Thermal)             CV                S
                      KCal/Mol        Cal/Mol-Kelvin    Cal/Mol-Kelvin
 Total                   31.494             11.376             64.249
 Electronic               0.000              0.000              0.000
 Translational            0.889              2.981             38.656
 Rotational               0.889              2.981             23.863
 Vibrational             29.717              5.415              1.731
 Vibration     1          0.932              1.085              0.494

 Optimization completed.
    -- Stationary point found.
 Normal termination of Gaussian 09 at Mon Dec 16 14:26:38 2013.
