 Gaussian 09, Revision D.01,
 Gaussian 09:  EM64L-G09RevD.01 24-Apr-2013

 -----------------------
 #B3LYP/cc-pVTZ opt freq
 -----------------------

 -----------------------------------------------------------------
 1H-tetrazole CH2N4 casno=288948 state=1 config=1 method=8 basis=6
 -----------------------------------------------------------------
 Symbolic Z-matrix:
 Charge =  0 Multiplicity = 1

 SCF Done:  E(RB3LYP) =  -258.342691097     A.U. after   14 cycles
 SCF Done:  E(RB3LYP) =  -258.345449388     A.U. after   11 cycles
 SCF Done:  E(RB3LYP) =  -258.345506625     A.U. after    9 cycles
 SCF Done:  E(RB3LYP) =  -258.345518060     A.U. after    9 cycles
 SCF Done:  E(RB3LYP) =  -258.345522348     A.U. after    8 cycles
 Optimization completed.
    -- Stationary point found.
 Normal termination of Gaussian 09 at Mon Dec 16 14:27:50 2013.

 -------------------------------------------------------------------
 #N Geom=AllCheck Guess=TCheck SCRF=Check GenChk RB3LYP/CC-pVTZ Freq
 -------------------------------------------------------------------

 Structure from the checkpoint file:  "/tmp/rdj3/g09-16160/Gau-19549.chk"
 -----------------------------------------------------------------
 1H-tetrazole CH2N4 casno=288948 state=1 config=1 method=8 basis=6
 -----------------------------------------------------------------
 Charge =  0 Multiplicity = 1

                         Standard orientation:
 ---------------------------------------------------------------------
 Center     Atomic      Atomic             Coordinates (Angstroms)
 Number     Number       Type             X           Y           Z
 ---------------------------------------------------------------------
      1          6           0        1.064891    0.234505    0.000000
      2          7           0        0.000000    1.052679    0.000000
      3          7           0       -1.117461    0.298595    0.000000
      4          7           0       -0.723140   -0.923003    0.000000
      5          7           0        0.637919   -1.003201    0.000000
      6          1           0        2.089610    0.560353    0.000000
      7          1           0       -0.060181    2.057115    0.000000
 ---------------------------------------------------------------------

 SCF Done:  E(RB3LYP) =  -258.345522348     A.U. after    1 cycles

 The electronic state is 1-A'.
 Alpha  occ. eigenvalues --  -14.43485 -14.40166 -14.38472 -14.35459 -10.27027
 Alpha  occ. eigenvalues --   -1.15265  -0.95461  -0.90370  -0.68759  -0.67427
 Alpha  occ. eigenvalues --   -0.60586  -0.50799  -0.50740  -0.38988  -0.34142
 Alpha  occ. eigenvalues --   -0.32033  -0.31306  -0.30101
 Alpha virt. eigenvalues --   -0.03101   0.00416   0.01028   0.05541   0.13924
 Alpha virt. eigenvalues --    0.15779   0.16521   0.23833   0.26800   0.28378
 Alpha virt. eigenvalues --    0.35466   0.36106   0.38657   0.40809   0.41845

 Mulliken charges:
               1
     1  C   -0.014068
     2  N   -0.006840
     3  N   -0.075428
     4  N   -0.073673
     5  N   -0.148880
     6  H    0.138923
     7  H    0.179965
 Sum of Mulliken charges =   0.00000

 Dipole moment (field-independent basis, Debye):
    X=              2.4348    Y=              4.6863    Z=              0.0000  Tot=              5.2810
 Quadrupole moment (field-independent basis, Debye-Ang):
   XX=            -28.9919   YY=            -26.4629   ZZ=            -28.3285
   XY=              1.8292   XZ=              0.0000   YZ=              0.0000

  Exact polarizability:  41.416   0.862  40.809   0.000   0.000  20.806
 Approx polarizability:  70.527   0.613  74.400   0.000   0.000  32.499

                      1                      2                      3
                     A"                     A"                     A"
 Frequencies --    582.1861               693.2559               744.5401
 Red. masses --      1.6284                 2.0850                 8.6496
 Frc consts  --      0.3252                 0.5904                 2.8250
 IR Inten    --     80.6994                 4.9990                 7.7993

                      4                      5                      6
                     A"                     A'                     A'
 Frequencies --    871.7957               960.6146              1011.2810
 Red. masses --      1.3899                 5.8096                 5.5356
 Frc consts  --      0.6224                 3.1586                 3.3355
 IR Inten    --     17.2472                 5.5656                 0.3967

                      7                      8                      9
                     A'                     A'                     A'
 Frequencies --   1026.2926              1060.5199              1144.3599
 Red. masses --      5.7087                 3.1376                 2.0767
 Frc consts  --      3.5427                 2.0792                 1.6023
 IR Inten    --     15.7594                26.0690                18.1259

                     10                     11                     12
                     A'                     A'                     A'
 Frequencies --   1264.0036              1293.0015              1451.5438
 Red. masses --      2.2119                10.9135                 3.0298
 Frc consts  --      2.0822                10.7501                 3.7611
 IR Inten    --      3.1330                13.0711                 8.4045

                     13                     14                     15
                     A'                     A'                     A'
 Frequencies --   1507.8567              3276.2917              3647.6332
 Red. masses --      3.2119                 1.1006                 1.0836
 Frc consts  --      4.3026                 6.9604                 8.4943
 IR Inten    --     16.3667                 1.0935                87.5931

 - Thermochemistry -
 -------------------
 Temperature   298.150 Kelvin.  Pressure   1.00000 Atm.
 Atom     1 has atomic number  6 and mass  12.00000

 Molecular mass:    70.02795 amu.
 Principal axes and moments of inertia in atomic units:
                           1         2         3
     Eigenvalues --   170.66039 173.56941 344.22980
           X            0.90777   0.41946   0.00000
           Y           -0.41946   0.90777   0.00000
           Z            0.00000   0.00000   1.00000
 This molecule is an asymmetric top.
 Rotational symmetry number  1.
 Rotational temperatures (Kelvin)      0.50752     0.49902     0.25162
 Rotational constants (GHZ):          10.57504    10.39781     5.24284
 Zero-point vibrational energy     122827.6 (Joules/Mol)
                                   29.35651 (Kcal/Mol)
 Warning -- explicit consideration of   1 degrees of freedom as
           vibrations may cause significant error
 Vibrational temperatures:    837.63   997.44  1071.23  1254.32  1382.11
          (Kelvin)           1455.01  1476.60  1525.85  1646.48  1818.62
                             1860.34  2088.45  2169.47  4713.85  5248.12

 Zero-point correction=                           0.046783 (Hartree/Particle)
 Thermal correction to Energy=                    0.050253
 Thermal correction to Enthalpy=                  0.051197
 Thermal correction to Gibbs Free Energy=         0.020696
 Sum of electronic and zero-point Energies=           -258.298740
 Sum of electronic and thermal Energies=              -258.295269
 Sum of electronic and thermal Enthalpies=            -258.294325
 Sum of electronic and thermal Free Energies=         -258.324827

                     E (Thermal)             CV                S
                      KCal/Mol        Cal/Mol-Kelvin    Cal/Mol-Kelvin
 Total                   31.534             11.336             64.196
 Electronic               0.000              0.000              0.000
 Translational            0.889              2.981             38.656
 Rotational               0.889              2.981             23.837
 Vibrational             29.757              5.374              1.703
 Vibration     1          0.939              1.070              0.481

 Optimization completed.
    -- Stationary point found.
 Normal termination of Gaussian 09 at Mon Dec 16 14:29:02 2013.
