 Gaussian 09, Revision D.01,
 Gaussian 09:  EM64L-G09RevD.01 24-Apr-2013

 --------------------------------
 #B3LYP/6-311G* opt=z-matrix freq
 --------------------------------

 -----------------------------------------------------------------
 1H-tetrazole CH2N4 casno=288948 state=1 config=1 method=8 basis=7
 -----------------------------------------------------------------
 Symbolic Z-matrix:
 Charge =  0 Multiplicity = 1

 SCF Done:  E(RB3LYP) =  -258.308409194     A.U. after   14 cycles
 SCF Done:  E(RB3LYP) =  -258.311906774     A.U. after   12 cycles
 SCF Done:  E(RB3LYP) =  -258.311953636     A.U. after   11 cycles
 SCF Done:  E(RB3LYP) =  -258.311969292     A.U. after    9 cycles
 SCF Done:  E(RB3LYP) =  -258.308905915     A.U. after   11 cycles
 SCF Done:  E(RB3LYP) =  -258.311980747     A.U. after    8 cycles
 SCF Done:  E(RB3LYP) =  -258.311982224     A.U. after    8 cycles
 SCF Done:  E(RB3LYP) =  -258.311272675     A.U. after   12 cycles
 SCF Done:  E(RB3LYP) =  -258.311982763     A.U. after    8 cycles
 SCF Done:  E(RB3LYP) =  -258.311982924     A.U. after    7 cycles
 Optimization completed.
    -- Stationary point found.
 Normal termination of Gaussian 09 at Mon Nov 25 17:52:17 2013.

 ---------------------------------------------------------------------
 #N Geom=AllCheck Guess=TCheck SCRF=Check GenChk RB3LYP/6-311G(d) Freq
 ---------------------------------------------------------------------

 Structure from the checkpoint file:  "/tmp/rdj3/g09-13608/Gau-9198.chk"
 -----------------------------------------------------------------
 1H-tetrazole CH2N4 casno=288948 state=1 config=1 method=8 basis=7
 -----------------------------------------------------------------
 Charge =  0 Multiplicity = 1

                         Standard orientation:
 ---------------------------------------------------------------------
 Center     Atomic      Atomic             Coordinates (Angstroms)
 Number     Number       Type             X           Y           Z
 ---------------------------------------------------------------------
      1          6           0        1.067056    0.234028    0.000000
      2          7           0        0.000000    1.055051    0.000000
      3          7           0       -1.120383    0.299469    0.000000
      4          7           0       -0.723790   -0.924283    0.000000
      5          7           0        0.639324   -1.005181    0.000000
      6          1           0        2.094644    0.559534    0.000000
      7          1           0       -0.063039    2.060906    0.000000
 ---------------------------------------------------------------------

 SCF Done:  E(RB3LYP) =  -258.311982924     A.U. after    1 cycles

 The electronic state is 1-A'.
 Alpha  occ. eigenvalues --  -14.42843 -14.39347 -14.37540 -14.34601 -10.26734
 Alpha  occ. eigenvalues --   -1.15339  -0.95528  -0.90445  -0.68899  -0.67390
 Alpha  occ. eigenvalues --   -0.60680  -0.50882  -0.50506  -0.38777  -0.33965
 Alpha  occ. eigenvalues --   -0.31922  -0.31118  -0.29830
 Alpha virt. eigenvalues --   -0.02902   0.00775   0.01426   0.05838   0.16053
 Alpha virt. eigenvalues --    0.17831   0.21512   0.26890   0.31877   0.38123
 Alpha virt. eigenvalues --    0.39099   0.42714   0.48978   0.53915   0.55264

 Mulliken charges:
               1
     1  C    0.119909
     2  N   -0.418072
     3  N   -0.013750
     4  N   -0.086474
     5  N   -0.225596
     6  H    0.250829
     7  H    0.373154
 Sum of Mulliken charges =   0.00000

 Dipole moment (field-independent basis, Debye):
    X=              2.4916    Y=              4.7896    Z=              0.0000  Tot=              5.3989
 Quadrupole moment (field-independent basis, Debye-Ang):
   XX=            -28.9329   YY=            -26.4128   ZZ=            -28.3649
   XY=              1.8205   XZ=              0.0000   YZ=              0.0000

  Exact polarizability:  38.762   0.992  38.298   0.000   0.000  17.441
 Approx polarizability:  66.800   0.464  71.132   0.000   0.000  26.320

                      1                      2                      3
                     A"                     A"                     A"
 Frequencies --    590.0831               695.7385               739.9525
 Red. masses --      1.8366                 1.8895                 8.0752
 Frc consts  --      0.3768                 0.5389                 2.6050
 IR Inten    --     91.1415                11.3273                 8.9427

                      4                      5                      6
                     A"                     A'                     A'
 Frequencies --    851.7573               962.9890              1015.5132
 Red. masses --      1.3676                 5.5216                 6.3481
 Frc consts  --      0.5846                 3.0169                 3.8572
 IR Inten    --     19.7033                 5.6104                 0.0288

                      7                      8                      9
                     A'                     A'                     A'
 Frequencies --   1031.2172              1066.4748              1145.3542
 Red. masses --      5.1880                 3.3073                 2.0464
 Frc consts  --      3.2505                 2.2163                 1.5817
 IR Inten    --     17.2983                26.7852                17.9194

                     10                     11                     12
                     A'                     A'                     A'
 Frequencies --   1268.6132              1295.5568              1460.3322
 Red. masses --      2.3202                10.2941                 3.2100
 Frc consts  --      2.2000                10.1801                 4.0333
 IR Inten    --      2.2087                16.7534                 8.9243

                     13                     14                     15
                     A'                     A'                     A'
 Frequencies --   1518.8027              3281.3732              3664.6004
 Red. masses --      2.8472                 1.1006                 1.0835
 Frc consts  --      3.8696                 6.9825                 8.5728
 IR Inten    --     18.7166                 0.3507                72.4340

 - Thermochemistry -
 -------------------
 Temperature   298.150 Kelvin.  Pressure   1.00000 Atm.
 Atom     1 has atomic number  6 and mass  12.00000

 Molecular mass:    70.02795 amu.
 Principal axes and moments of inertia in atomic units:
                           1         2         3
     Eigenvalues --   171.18416 174.41959 345.60375
           X            0.89843   0.43911   0.00000
           Y           -0.43911   0.89843   0.00000
           Z            0.00000   0.00000   1.00000
 This molecule is an asymmetric top.
 Rotational symmetry number  1.
 Rotational temperatures (Kelvin)      0.50597     0.49658     0.25062
 Rotational constants (GHZ):          10.54269    10.34712     5.22200
 Zero-point vibrational energy     123145.7 (Joules/Mol)
                                   29.43254 (Kcal/Mol)
 Warning -- explicit consideration of   1 degrees of freedom as
           vibrations may cause significant error
 Vibrational temperatures:    849.00  1001.01  1064.63  1225.49  1385.52
          (Kelvin)           1461.10  1483.69  1534.42  1647.91  1825.25
                             1864.01  2101.09  2185.22  4721.16  5272.54

 Zero-point correction=                           0.046904 (Hartree/Particle)
 Thermal correction to Energy=                    0.050372
 Thermal correction to Enthalpy=                  0.051316
 Thermal correction to Gibbs Free Energy=         0.020813
 Sum of electronic and zero-point Energies=           -258.265079
 Sum of electronic and thermal Energies=              -258.261611
 Sum of electronic and thermal Enthalpies=            -258.260667
 Sum of electronic and thermal Free Energies=         -258.291170

                     E (Thermal)             CV                S
                      KCal/Mol        Cal/Mol-Kelvin    Cal/Mol-Kelvin
 Total                   31.609             11.324             64.200
 Electronic               0.000              0.000              0.000
 Translational            0.889              2.981             38.656
 Rotational               0.889              2.981             23.849
 Vibrational             29.831              5.362              1.695
 Vibration     1          0.947              1.053              0.467

 Normal termination of Gaussian 09 at Mon Nov 25 17:52:28 2013.
