 Gaussian 09, Revision D.01,
 Gaussian 09:  EM64L-G09RevD.01 24-Apr-2013

 ----------------------
 #B3LYP/3-21G* opt freq
 ----------------------

 -----------------------------------------------------------------
 1H-tetrazole CH2N4 casno=288948 state=1 config=1 method=8 basis=8
 -----------------------------------------------------------------
 Symbolic Z-matrix:
 Charge =  0 Multiplicity = 1

 SCF Done:  E(RB3LYP) =  -256.765877325     A.U. after   14 cycles
 SCF Done:  E(RB3LYP) =  -256.785429327     A.U. after   15 cycles
 SCF Done:  E(RB3LYP) =  -256.786870775     A.U. after   13 cycles
 SCF Done:  E(RB3LYP) =  -256.787251589     A.U. after   13 cycles
 SCF Done:  E(RB3LYP) =  -256.787359654     A.U. after    9 cycles
 SCF Done:  E(RB3LYP) =  -256.787378763     A.U. after    9 cycles
 SCF Done:  E(RB3LYP) =  -256.787386413     A.U. after    9 cycles
 SCF Done:  E(RB3LYP) =  -256.787390449     A.U. after    9 cycles
 SCF Done:  E(RB3LYP) =  -256.787391388     A.U. after    9 cycles
 Optimization completed.
    -- Stationary point found.
 Normal termination of Gaussian 09 at Mon Dec 16 14:29:13 2013.

 ------------------------------------------------------------------
 #N Geom=AllCheck Guess=TCheck SCRF=Check GenChk RB3LYP/3-21G* Freq
 ------------------------------------------------------------------

 Structure from the checkpoint file:  "/tmp/rdj3/g09-16160/Gau-20136.chk"
 -----------------------------------------------------------------
 1H-tetrazole CH2N4 casno=288948 state=1 config=1 method=8 basis=8
 -----------------------------------------------------------------
 Charge =  0 Multiplicity = 1

                         Standard orientation:
 ---------------------------------------------------------------------
 Center     Atomic      Atomic             Coordinates (Angstroms)
 Number     Number       Type             X           Y           Z
 ---------------------------------------------------------------------
      1          6           0        1.079742    0.260424    0.000000
      2          7           0        0.000000    1.085376    0.000000
      3          7           0       -1.172481    0.287145    0.000000
      4          7           0       -0.744291   -0.968850    0.000000
      5          7           0        0.701528   -1.012224    0.000000
      6          1           0        2.098232    0.601778    0.000000
      7          1           0       -0.069979    2.095545    0.000000
 ---------------------------------------------------------------------

 SCF Done:  E(RB3LYP) =  -256.787391388     A.U. after    1 cycles

 The electronic state is 1-A'.
 Alpha  occ. eigenvalues --  -14.37182 -14.34725 -14.32852 -14.29561 -10.23264
 Alpha  occ. eigenvalues --   -1.14086  -0.94405  -0.91426  -0.67760  -0.66854
 Alpha  occ. eigenvalues --   -0.60417  -0.49798  -0.48687  -0.36991  -0.32861
 Alpha  occ. eigenvalues --   -0.31530  -0.30157  -0.29122
 Alpha virt. eigenvalues --   -0.03485   0.00622   0.07094   0.09419   0.15996
 Alpha virt. eigenvalues --    0.19321   0.25321   0.34789   0.38271   0.66364
 Alpha virt. eigenvalues --    0.68726   0.79853   0.82889   0.91316   1.00839

 Mulliken charges:
               1
     1  C    0.335587
     2  N   -0.525755
     3  N   -0.031200
     4  N   -0.078219
     5  N   -0.334856
     6  H    0.269330
     7  H    0.365114
 Sum of Mulliken charges =   0.00000

 Dipole moment (field-independent basis, Debye):
    X=              2.4347    Y=              4.8705    Z=              0.0000  Tot=              5.4451
 Quadrupole moment (field-independent basis, Debye-Ang):
   XX=            -29.0116   YY=            -26.4265   ZZ=            -28.4925
   XY=              1.9784   XZ=              0.0000   YZ=              0.0000

  Exact polarizability:  35.016   1.290  34.793   0.000   0.000  11.304
 Approx polarizability:  66.856  -0.554  75.048   0.000   0.000  14.654

                      1                      2                      3
                     A"                     A"                     A"
 Frequencies --    625.2616               674.9352               683.6124
 Red. masses --      2.6114                 1.4115                 8.1884
 Frc consts  --      0.6015                 0.3788                 2.2546
 IR Inten    --     93.4578                53.8101                11.2881

                      4                      5                      6
                     A'                     A'                     A"
 Frequencies --    763.7401               847.5853               916.2941
 Red. masses --     10.3757                 6.4991                 1.3848
 Frc consts  --      3.5658                 2.7509                 0.6850
 IR Inten    --      9.9218                15.9566                15.7285

                      7                      8                      9
                     A'                     A'                     A'
 Frequencies --    979.5923              1011.0184              1075.6357
 Red. masses --      4.7534                 6.5318                 7.2877
 Frc consts  --      2.6875                 3.9337                 4.9679
 IR Inten    --      7.5924                 8.6998                 2.9272

                     10                     11                     12
                     A'                     A'                     A'
 Frequencies --   1142.3226              1215.8967              1360.3158
 Red. masses --      2.1491                 2.1850                 2.6167
 Frc consts  --      1.6523                 1.9032                 2.8529
 IR Inten    --     13.5179                 7.4800                 5.0741

                     13                     14                     15
                     A'                     A'                     A'
 Frequencies --   1435.7644              3321.9257              3588.6346
 Red. masses --      2.1723                 1.0993                 1.0845
 Frc consts  --      2.6383                 7.1471                 8.2291
 IR Inten    --     39.4193                 2.1821                95.1785

 - Thermochemistry -
 -------------------
 Temperature   298.150 Kelvin.  Pressure   1.00000 Atm.
 Atom     1 has atomic number  6 and mass  12.00000

 Molecular mass:    70.02795 amu.
 Principal axes and moments of inertia in atomic units:
                           1         2         3
     Eigenvalues --   180.81347 186.71203 367.52550
           X            0.99646   0.08411   0.00000
           Y           -0.08411   0.99646   0.00000
           Z            0.00000   0.00000   1.00000
 This molecule is an asymmetric top.
 Rotational symmetry number  1.
 Rotational temperatures (Kelvin)      0.47902     0.46389     0.23567
 Rotational constants (GHZ):           9.98123     9.66591     4.91052
 Zero-point vibrational energy     117488.5 (Joules/Mol)
                                   28.08041 (Kcal/Mol)
 Vibrational temperatures:    899.61   971.08   983.56  1098.85  1219.48
          (Kelvin)           1318.34  1409.41  1454.63  1547.60  1643.55
                             1749.40  1957.19  2065.74  4779.50  5163.24

 Zero-point correction=                           0.044749 (Hartree/Particle)
 Thermal correction to Energy=                    0.048331
 Thermal correction to Enthalpy=                  0.049275
 Thermal correction to Gibbs Free Energy=         0.018540
 Sum of electronic and zero-point Energies=           -256.742642
 Sum of electronic and thermal Energies=              -256.739060
 Sum of electronic and thermal Enthalpies=            -256.738116
 Sum of electronic and thermal Free Energies=         -256.768852

                     E (Thermal)             CV                S
                      KCal/Mol        Cal/Mol-Kelvin    Cal/Mol-Kelvin
 Total                   30.328             12.167             64.689
 Electronic               0.000              0.000              0.000
 Translational            0.889              2.981             38.656
 Rotational               0.889              2.981             24.032
 Vibrational             28.551              6.206              2.001

 Optimization completed.
    -- Stationary point found.
 Normal termination of Gaussian 09 at Mon Dec 16 14:29:17 2013.
