 Gaussian 09, Revision D.01,
 Gaussian 09:  EM64L-G09RevD.01 24-Apr-2013

 ------------------------------
 #B3LYP/6-31G opt=z-matrix freq
 ------------------------------

 -----------------------------------------------------------------
 1H-tetrazole CH2N4 casno=288948 state=1 config=1 method=8 basis=9
 -----------------------------------------------------------------
 Symbolic Z-matrix:
 Charge =  0 Multiplicity = 1

 SCF Done:  E(RB3LYP) =  -258.118940026     A.U. after   14 cycles
 SCF Done:  E(RB3LYP) =  -258.132632245     A.U. after   14 cycles
 SCF Done:  E(RB3LYP) =  -258.133092571     A.U. after   13 cycles
 SCF Done:  E(RB3LYP) =  -258.132091485     A.U. after   13 cycles
 SCF Done:  E(RB3LYP) =  -258.133301884     A.U. after   11 cycles
 SCF Done:  E(RB3LYP) =  -258.133335711     A.U. after   10 cycles
 SCF Done:  E(RB3LYP) =  -258.133275383     A.U. after   12 cycles
 SCF Done:  E(RB3LYP) =  -258.133339814     A.U. after    9 cycles
 SCF Done:  E(RB3LYP) =  -258.133345139     A.U. after    9 cycles
 SCF Done:  E(RB3LYP) =  -258.133271476     A.U. after   13 cycles
 SCF Done:  E(RB3LYP) =  -258.133347276     A.U. after    8 cycles
 SCF Done:  E(RB3LYP) =  -258.133338288     A.U. after   11 cycles
 SCF Done:  E(RB3LYP) =  -258.133347180     A.U. after    9 cycles
 SCF Done:  E(RB3LYP) =  -258.133344502     A.U. after   11 cycles
 SCF Done:  E(RB3LYP) =  -258.133347366     A.U. after    8 cycles
 SCF Done:  E(RB3LYP) =  -258.133343678     A.U. after   11 cycles
 SCF Done:  E(RB3LYP) =  -258.133347488     A.U. after    8 cycles
 SCF Done:  E(RB3LYP) =  -258.133335433     A.U. after   11 cycles
 SCF Done:  E(RB3LYP) =  -258.133347483     A.U. after    8 cycles
 Optimization completed.
    -- Stationary point found.
 Normal termination of Gaussian 09 at Mon Nov 25 17:53:30 2013.

 -----------------------------------------------------------------
 #N Geom=AllCheck Guess=TCheck SCRF=Check GenChk RB3LYP/6-31G Freq
 -----------------------------------------------------------------

 Structure from the checkpoint file:  "/tmp/rdj3/g09-13608/Gau-11913.chk"
 -----------------------------------------------------------------
 1H-tetrazole CH2N4 casno=288948 state=1 config=1 method=8 basis=9
 -----------------------------------------------------------------
 Charge =  0 Multiplicity = 1

                         Standard orientation:
 ---------------------------------------------------------------------
 Center     Atomic      Atomic             Coordinates (Angstroms)
 Number     Number       Type             X           Y           Z
 ---------------------------------------------------------------------
      1          6           0        1.083881    0.253877    0.000000
      2          7           0        0.000000    1.073200    0.000000
      3          7           0       -1.151901    0.295303    0.000000
      4          7           0       -0.738267   -0.953043    0.000000
      5          7           0        0.669651   -1.012687    0.000000
      6          1           0        2.107894    0.579479    0.000000
      7          1           0       -0.067553    2.077846    0.000000
 ---------------------------------------------------------------------

 SCF Done:  E(RB3LYP) =  -258.133347483     A.U. after    1 cycles

 The electronic state is 1-A'.
 Alpha  occ. eigenvalues --  -14.45675 -14.43539 -14.41611 -14.38693 -10.29821
 Alpha  occ. eigenvalues --   -1.16715  -0.96456  -0.92547  -0.69523  -0.68112
 Alpha  occ. eigenvalues --   -0.61312  -0.51347  -0.50393  -0.38118  -0.34371
 Alpha  occ. eigenvalues --   -0.32663  -0.31078  -0.30077
 Alpha virt. eigenvalues --   -0.04637  -0.00751   0.04628   0.08835   0.14541
 Alpha virt. eigenvalues --    0.17598   0.23490   0.29769   0.36614   0.51097
 Alpha virt. eigenvalues --    0.53040   0.60550   0.64168   0.65183   0.66231

 Mulliken charges:
               1
     1  C    0.304706
     2  N   -0.538478
     3  N    0.016592
     4  N   -0.091344
     5  N   -0.282355
     6  H    0.220208
     7  H    0.370670
 Sum of Mulliken charges =   0.00000

 Dipole moment (field-independent basis, Debye):
    X=              2.6999    Y=              5.1030    Z=              0.0000  Tot=              5.7732
 Quadrupole moment (field-independent basis, Debye-Ang):
   XX=            -29.7090   YY=            -27.2723   ZZ=            -28.5919
   XY=              2.0369   XZ=              0.0000   YZ=              0.0000

  Exact polarizability:  37.835   1.096  37.504   0.000   0.000  13.838
 Approx polarizability:  68.323  -0.150  74.360   0.000   0.000  18.088

                      1                      2                      3
                     A"                     A"                     A"
 Frequencies --    662.2157               709.6547               718.8664
 Red. masses --      4.3834                 7.1774                 1.1867
 Frc consts  --      1.1326                 2.1297                 0.3613
 IR Inten    --     24.9055                 4.3485               137.4413

                      4                      5                      6
                     A'                     A"                     A'
 Frequencies --    835.1653               879.9785               919.3570
 Red. masses --      9.1693                 1.3829                 6.1949
 Frc consts  --      3.7682                 0.6309                 3.0850
 IR Inten    --      9.0294                15.5646                18.3120

                      7                      8                      9
                     A'                     A'                     A'
 Frequencies --   1004.4362              1034.2451              1141.6296
 Red. masses --      6.3734                 4.9239                 2.1877
 Frc consts  --      3.7885                 3.1032                 1.6799
 IR Inten    --      3.8311                12.3726                14.7756

                     10                     11                     12
                     A'                     A'                     A'
 Frequencies --   1191.7008              1242.5397              1409.0186
 Red. masses --      4.1970                 2.6583                 2.8914
 Frc consts  --      3.5118                 2.4181                 3.3821
 IR Inten    --     12.4323                 2.2510                 4.2350

                     13                     14                     15
                     A'                     A'                     A'
 Frequencies --   1482.7238              3355.1509              3703.1410
 Red. masses --      2.1308                 1.1018                 1.0844
 Frc consts  --      2.7600                 7.3076                 8.7618
 IR Inten    --     36.9886                 4.1938                96.5136

 - Thermochemistry -
 -------------------
 Temperature   298.150 Kelvin.  Pressure   1.00000 Atm.
 Atom     1 has atomic number  6 and mass  12.00000

 Molecular mass:    70.02795 amu.
 Principal axes and moments of inertia in atomic units:
                           1         2         3
     Eigenvalues --   177.78767 182.19662 359.98429
           X            0.99723   0.07441   0.00000
           Y           -0.07441   0.99723   0.00000
           Z            0.00000   0.00000   1.00000
 This molecule is an asymmetric top.
 Rotational symmetry number  1.
 Rotational temperatures (Kelvin)      0.48718     0.47539     0.24060
 Rotational constants (GHZ):          10.15110     9.90546     5.01339
 Zero-point vibrational energy     121360.1 (Joules/Mol)
                                   29.00576 (Kcal/Mol)
 Vibrational temperatures:    952.78  1021.03  1034.29  1201.62  1266.09
          (Kelvin)           1322.75  1445.16  1488.05  1642.55  1714.59
                             1787.74  2027.26  2133.31  4827.31  5327.99

 Zero-point correction=                           0.046224 (Hartree/Particle)
 Thermal correction to Energy=                    0.049710
 Thermal correction to Enthalpy=                  0.050654
 Thermal correction to Gibbs Free Energy=         0.020077
 Sum of electronic and zero-point Energies=           -258.087124
 Sum of electronic and thermal Energies=              -258.083638
 Sum of electronic and thermal Enthalpies=            -258.082693
 Sum of electronic and thermal Free Energies=         -258.113270

                     E (Thermal)             CV                S
                      KCal/Mol        Cal/Mol-Kelvin    Cal/Mol-Kelvin
 Total                   31.193             11.597             64.354
 Electronic               0.000              0.000              0.000
 Translational            0.889              2.981             38.656
 Rotational               0.889              2.981             23.971
 Vibrational             29.416              5.635              1.728

 Normal termination of Gaussian 09 at Mon Nov 25 17:53:34 2013.
